+ 0.011 0 2 ping 50000 ------- 1 0.0 3.0 -1 0
- 0.011 0 2 ping 50000 ------- 1 0.0 3.0 -1 0
+ 0.011 4 2 ping 60000 ------- 2 4.0 5.0 -1 1
- 0.011 4 2 ping 60000 ------- 2 4.0 5.0 -1 1
+ 0.011 1 2 ping 60000 ------- 2 1.0 5.0 -1 2
- 0.011 1 2 ping 60000 ------- 2 1.0 5.0 -1 2
+ 0.012 0 2 ping 50000 ------- 1 0.0 3.0 -1 3
+ 0.012 4 2 ping 60000 ------- 2 4.0 5.0 -1 4
+ 0.012 1 2 ping 60000 ------- 2 1.0 5.0 -1 5
+ 0.013 0 2 ping 50000 ------- 1 0.0 3.0 -1 6
d 0.013 0 2 ping 50000 ------- 1 0.0 3.0 -1 6
+ 0.013 4 2 ping 60000 ------- 2 4.0 5.0 -1 7
d 0.013 4 2 ping 60000 ------- 2 4.0 5.0 -1 7
+ 0.013 1 2 ping 60000 ------- 2 1.0 5.0 -1 8
d 0.013 1 2 ping 60000 ------- 2 1.0 5.0 -1 8
+ 0.014 0 2 ping 50000 ------- 1 0.0 3.0 -1 9
d 0.014 0 2 ping 50000 ------- 1 0.0 3.0 -1 9
+ 0.014 4 2 ping 60000 ------- 2 4.0 5.0 -1 10
d 0.014 4 2 ping 60000 ------- 2 4.0 5.0 -1 10
+ 0.014 1 2 ping 60000 ------- 2 1.0 5.0 -1 11
d 0.014 1 2 ping 60000 ------- 2 1.0 5.0 -1 11
+ 0.015 0 2 ping 50000 ------- 1 0.0 3.0 -1 12
d 0.015 0 2 ping 50000 ------- 1 0.0 3.0 -1 12
+ 0.015 4 2 ping 60000 ------- 2 4.0 5.0 -1 13
d 0.015 4 2 ping 60000 ------- 2 4.0 5.0 -1 13
+ 0.015 1 2 ping 60000 ------- 2 1.0 5.0 -1 14
d 0.015 1 2 ping 60000 ------- 2 1.0 5.0 -1 14
+ 0.016 0 2 ping 50000 ------- 1 0.0 3.0 -1 15
d 0.016 0 2 ping 50000 ------- 1 0.0 3.0 -1 15
+ 0.016 4 2 ping 60000 ------- 2 4.0 5.0 -1 16
d 0.016 4 2 ping 60000 ------- 2 4.0 5.0 -1 16
+ 0.016 1 2 ping 60000 ------- 2 1.0 5.0 -1 17
d 0.016 1 2 ping 60000 ------- 2 1.0 5.0 -1 17
+ 0.017 0 2 ping 50000 ------- 1 0.0 3.0 -1 18
d 0.017 0 2 ping 50000 ------- 1 0.0 3.0 -1 18
+ 0.017 4 2 ping 60000 ------- 2 4.0 5.0 -1 19
d 0.017 4 2 ping 60000 ------- 2 4.0 5.0 -1 19
+ 0.017 1 2 ping 60000 ------- 2 1.0 5.0 -1 20
d 0.017 1 2 ping 60000 ------- 2 1.0 5.0 -1 20
+ 0.018 0 2 ping 50000 ------- 1 0.0 3.0 -1 21
d 0.018 0 2 ping 50000 ------- 1 0.0 3.0 -1 21
+ 0.018 4 2 ping 60000 ------- 2 4.0 5.0 -1 22
d 0.018 4 2 ping 60000 ------- 2 4.0 5.0 -1 22
+ 0.018 1 2 ping 60000 ------- 2 1.0 5.0 -1 23
d 0.018 1 2 ping 60000 ------- 2 1.0 5.0 -1 23
+ 0.019 0 2 ping 50000 ------- 1 0.0 3.0 -1 24
d 0.019 0 2 ping 50000 ------- 1 0.0 3.0 -1 24
+ 0.019 4 2 ping 60000 ------- 2 4.0 5.0 -1 25
d 0.019 4 2 ping 60000 ------- 2 4.0 5.0 -1 25
+ 0.019 1 2 ping 60000 ------- 2 1.0 5.0 -1 26
d 0.019 1 2 ping 60000 ------- 2 1.0 5.0 -1 26
+ 0.02 0 2 ping 50000 ------- 1 0.0 3.0 -1 27
d 0.02 0 2 ping 50000 ------- 1 0.0 3.0 -1 27
+ 0.02 4 2 ping 60000 ------- 2 4.0 5.0 -1 28
d 0.02 4 2 ping 60000 ------- 2 4.0 5.0 -1 28
+ 0.02 1 2 ping 60000 ------- 2 1.0 5.0 -1 29
d 0.02 1 2 ping 60000 ------- 2 1.0 5.0 -1 29
+ 0.021 0 2 ping 50000 ------- 1 0.0 3.0 -1 30
d 0.021 0 2 ping 50000 ------- 1 0.0 3.0 -1 30
+ 0.021 4 2 ping 60000 ------- 2 4.0 5.0 -1 31
d 0.021 4 2 ping 60000 ------- 2 4.0 5.0 -1 31
+ 0.021 1 2 ping 60000 ------- 2 1.0 5.0 -1 32
d 0.021 1 2 ping 60000 ------- 2 1.0 5.0 -1 32
+ 0.022 0 2 ping 50000 ------- 1 0.0 3.0 -1 33
d 0.022 0 2 ping 50000 ------- 1 0.0 3.0 -1 33
+ 0.022 4 2 ping 60000 ------- 2 4.0 5.0 -1 34
d 0.022 4 2 ping 60000 ------- 2 4.0 5.0 -1 34
+ 0.022 1 2 ping 60000 ------- 2 1.0 5.0 -1 35
d 0.022 1 2 ping 60000 ------- 2 1.0 5.0 -1 35
+ 0.023 0 2 ping 50000 ------- 1 0.0 3.0 -1 36
d 0.023 0 2 ping 50000 ------- 1 0.0 3.0 -1 36
+ 0.023 4 2 ping 60000 ------- 2 4.0 5.0 -1 37
d 0.023 4 2 ping 60000 ------- 2 4.0 5.0 -1 37
+ 0.023 1 2 ping 60000 ------- 2 1.0 5.0 -1 38
d 0.023 1 2 ping 60000 ------- 2 1.0 5.0 -1 38
+ 0.024 0 2 ping 50000 ------- 1 0.0 3.0 -1 39
d 0.024 0 2 ping 50000 ------- 1 0.0 3.0 -1 39
+ 0.024 4 2 ping 60000 ------- 2 4.0 5.0 -1 40
d 0.024 4 2 ping 60000 ------- 2 4.0 5.0 -1 40
+ 0.024 1 2 ping 60000 ------- 2 1.0 5.0 -1 41
d 0.024 1 2 ping 60000 ------- 2 1.0 5.0 -1 41
+ 0.025 0 2 ping 50000 ------- 1 0.0 3.0 -1 42
d 0.025 0 2 ping 50000 ------- 1 0.0 3.0 -1 42
+ 0.025 4 2 ping 60000 ------- 2 4.0 5.0 -1 43
d 0.025 4 2 ping 60000 ------- 2 4.0 5.0 -1 43
+ 0.025 1 2 ping 60000 ------- 2 1.0 5.0 -1 44
d 0.025 1 2 ping 60000 ------- 2 1.0 5.0 -1 44
+ 0.026 0 2 ping 50000 ------- 1 0.0 3.0 -1 45
d 0.026 0 2 ping 50000 ------- 1 0.0 3.0 -1 45
+ 0.026 4 2 ping 60000 ------- 2 4.0 5.0 -1 46
d 0.026 4 2 ping 60000 ------- 2 4.0 5.0 -1 46
+ 0.026 1 2 ping 60000 ------- 2 1.0 5.0 -1 47
d 0.026 1 2 ping 60000 ------- 2 1.0 5.0 -1 47
+ 0.027 0 2 ping 50000 ------- 1 0.0 3.0 -1 48
d 0.027 0 2 ping 50000 ------- 1 0.0 3.0 -1 48
+ 0.027 4 2 ping 60000 ------- 2 4.0 5.0 -1 49
d 0.027 4 2 ping 60000 ------- 2 4.0 5.0 -1 49
+ 0.027 1 2 ping 60000 ------- 2 1.0 5.0 -1 50
d 0.027 1 2 ping 60000 ------- 2 1.0 5.0 -1 50
+ 0.028 0 2 ping 50000 ------- 1 0.0 3.0 -1 51
d 0.028 0 2 ping 50000 ------- 1 0.0 3.0 -1 51
+ 0.028 4 2 ping 60000 ------- 2 4.0 5.0 -1 52
d 0.028 4 2 ping 60000 ------- 2 4.0 5.0 -1 52
+ 0.028 1 2 ping 60000 ------- 2 1.0 5.0 -1 53
d 0.028 1 2 ping 60000 ------- 2 1.0 5.0 -1 53
+ 0.029 0 2 ping 50000 ------- 1 0.0 3.0 -1 54
d 0.029 0 2 ping 50000 ------- 1 0.0 3.0 -1 54
+ 0.029 4 2 ping 60000 ------- 2 4.0 5.0 -1 55
d 0.029 4 2 ping 60000 ------- 2 4.0 5.0 -1 55
+ 0.029 1 2 ping 60000 ------- 2 1.0 5.0 -1 56
d 0.029 1 2 ping 60000 ------- 2 1.0 5.0 -1 56
+ 0.03 0 2 ping 50000 ------- 1 0.0 3.0 -1 57
d 0.03 0 2 ping 50000 ------- 1 0.0 3.0 -1 57
+ 0.03 4 2 ping 60000 ------- 2 4.0 5.0 -1 58
d 0.03 4 2 ping 60000 ------- 2 4.0 5.0 -1 58
+ 0.03 1 2 ping 60000 ------- 2 1.0 5.0 -1 59
d 0.03 1 2 ping 60000 ------- 2 1.0 5.0 -1 59
+ 0.031 0 2 ping 50000 ------- 1 0.0 3.0 -1 60
d 0.031 0 2 ping 50000 ------- 1 0.0 3.0 -1 60
+ 0.031 4 2 ping 60000 ------- 2 4.0 5.0 -1 61
d 0.031 4 2 ping 60000 ------- 2 4.0 5.0 -1 61
+ 0.031 1 2 ping 60000 ------- 2 1.0 5.0 -1 62
d 0.031 1 2 ping 60000 ------- 2 1.0 5.0 -1 62
+ 0.032 0 2 ping 50000 ------- 1 0.0 3.0 -1 63
d 0.032 0 2 ping 50000 ------- 1 0.0 3.0 -1 63
+ 0.032 4 2 ping 60000 ------- 2 4.0 5.0 -1 64
d 0.032 4 2 ping 60000 ------- 2 4.0 5.0 -1 64
+ 0.032 1 2 ping 60000 ------- 2 1.0 5.0 -1 65
d 0.032 1 2 ping 60000 ------- 2 1.0 5.0 -1 65
+ 0.033 0 2 ping 50000 ------- 1 0.0 3.0 -1 66
d 0.033 0 2 ping 50000 ------- 1 0.0 3.0 -1 66
+ 0.033 4 2 ping 60000 ------- 2 4.0 5.0 -1 67
d 0.033 4 2 ping 60000 ------- 2 4.0 5.0 -1 67
+ 0.033 1 2 ping 60000 ------- 2 1.0 5.0 -1 68
d 0.033 1 2 ping 60000 ------- 2 1.0 5.0 -1 68
+ 0.034 0 2 ping 50000 ------- 1 0.0 3.0 -1 69
d 0.034 0 2 ping 50000 ------- 1 0.0 3.0 -1 69
+ 0.034 4 2 ping 60000 ------- 2 4.0 5.0 -1 70
d 0.034 4 2 ping 60000 ------- 2 4.0 5.0 -1 70
+ 0.034 1 2 ping 60000 ------- 2 1.0 5.0 -1 71
d 0.034 1 2 ping 60000 ------- 2 1.0 5.0 -1 71
+ 0.035 0 2 ping 50000 ------- 1 0.0 3.0 -1 72
d 0.035 0 2 ping 50000 ------- 1 0.0 3.0 -1 72
+ 0.035 4 2 ping 60000 ------- 2 4.0 5.0 -1 73
d 0.035 4 2 ping 60000 ------- 2 4.0 5.0 -1 73
+ 0.035 1 2 ping 60000 ------- 2 1.0 5.0 -1 74
d 0.035 1 2 ping 60000 ------- 2 1.0 5.0 -1 74
+ 0.036 0 2 ping 50000 ------- 1 0.0 3.0 -1 75
d 0.036 0 2 ping 50000 ------- 1 0.0 3.0 -1 75
+ 0.036 4 2 ping 60000 ------- 2 4.0 5.0 -1 76
d 0.036 4 2 ping 60000 ------- 2 4.0 5.0 -1 76
+ 0.036 1 2 ping 60000 ------- 2 1.0 5.0 -1 77
d 0.036 1 2 ping 60000 ------- 2 1.0 5.0 -1 77
+ 0.037 0 2 ping 50000 ------- 1 0.0 3.0 -1 78
d 0.037 0 2 ping 50000 ------- 1 0.0 3.0 -1 78
+ 0.037 4 2 ping 60000 ------- 2 4.0 5.0 -1 79
d 0.037 4 2 ping 60000 ------- 2 4.0 5.0 -1 79
+ 0.037 1 2 ping 60000 ------- 2 1.0 5.0 -1 80
d 0.037 1 2 ping 60000 ------- 2 1.0 5.0 -1 80
+ 0.038 0 2 ping 50000 ------- 1 0.0 3.0 -1 81
d 0.038 0 2 ping 50000 ------- 1 0.0 3.0 -1 81
+ 0.038 4 2 ping 60000 ------- 2 4.0 5.0 -1 82
d 0.038 4 2 ping 60000 ------- 2 4.0 5.0 -1 82
+ 0.038 1 2 ping 60000 ------- 2 1.0 5.0 -1 83
d 0.038 1 2 ping 60000 ------- 2 1.0 5.0 -1 83
+ 0.039 0 2 ping 50000 ------- 1 0.0 3.0 -1 84
d 0.039 0 2 ping 50000 ------- 1 0.0 3.0 -1 84
+ 0.039 4 2 ping 60000 ------- 2 4.0 5.0 -1 85
d 0.039 4 2 ping 60000 ------- 2 4.0 5.0 -1 85
+ 0.039 1 2 ping 60000 ------- 2 1.0 5.0 -1 86
d 0.039 1 2 ping 60000 ------- 2 1.0 5.0 -1 86
+ 0.04 0 2 ping 50000 ------- 1 0.0 3.0 -1 87
d 0.04 0 2 ping 50000 ------- 1 0.0 3.0 -1 87
+ 0.04 4 2 ping 60000 ------- 2 4.0 5.0 -1 88
d 0.04 4 2 ping 60000 ------- 2 4.0 5.0 -1 88
+ 0.04 1 2 ping 60000 ------- 2 1.0 5.0 -1 89
d 0.04 1 2 ping 60000 ------- 2 1.0 5.0 -1 89
+ 0.041 0 2 ping 50000 ------- 1 0.0 3.0 -1 90
d 0.041 0 2 ping 50000 ------- 1 0.0 3.0 -1 90
+ 0.041 4 2 ping 60000 ------- 2 4.0 5.0 -1 91
d 0.041 4 2 ping 60000 ------- 2 4.0 5.0 -1 91
+ 0.041 1 2 ping 60000 ------- 2 1.0 5.0 -1 92
d 0.041 1 2 ping 60000 ------- 2 1.0 5.0 -1 92
+ 0.042 0 2 ping 50000 ------- 1 0.0 3.0 -1 93
d 0.042 0 2 ping 50000 ------- 1 0.0 3.0 -1 93
+ 0.042 4 2 ping 60000 ------- 2 4.0 5.0 -1 94
d 0.042 4 2 ping 60000 ------- 2 4.0 5.0 -1 94
+ 0.042 1 2 ping 60000 ------- 2 1.0 5.0 -1 95
d 0.042 1 2 ping 60000 ------- 2 1.0 5.0 -1 95
+ 0.043 0 2 ping 50000 ------- 1 0.0 3.0 -1 96
d 0.043 0 2 ping 50000 ------- 1 0.0 3.0 -1 96
+ 0.043 4 2 ping 60000 ------- 2 4.0 5.0 -1 97
d 0.043 4 2 ping 60000 ------- 2 4.0 5.0 -1 97
+ 0.043 1 2 ping 60000 ------- 2 1.0 5.0 -1 98
d 0.043 1 2 ping 60000 ------- 2 1.0 5.0 -1 98
+ 0.044 0 2 ping 50000 ------- 1 0.0 3.0 -1 99
d 0.044 0 2 ping 50000 ------- 1 0.0 3.0 -1 99
+ 0.044 4 2 ping 60000 ------- 2 4.0 5.0 -1 100
d 0.044 4 2 ping 60000 ------- 2 4.0 5.0 -1 100
+ 0.044 1 2 ping 60000 ------- 2 1.0 5.0 -1 101
d 0.044 1 2 ping 60000 ------- 2 1.0 5.0 -1 101
+ 0.045 0 2 ping 50000 ------- 1 0.0 3.0 -1 102
d 0.045 0 2 ping 50000 ------- 1 0.0 3.0 -1 102
+ 0.045 4 2 ping 60000 ------- 2 4.0 5.0 -1 103
d 0.045 4 2 ping 60000 ------- 2 4.0 5.0 -1 103
+ 0.045 1 2 ping 60000 ------- 2 1.0 5.0 -1 104
d 0.045 1 2 ping 60000 ------- 2 1.0 5.0 -1 104
+ 0.046 0 2 ping 50000 ------- 1 0.0 3.0 -1 105
d 0.046 0 2 ping 50000 ------- 1 0.0 3.0 -1 105
+ 0.046 4 2 ping 60000 ------- 2 4.0 5.0 -1 106
d 0.046 4 2 ping 60000 ------- 2 4.0 5.0 -1 106
+ 0.046 1 2 ping 60000 ------- 2 1.0 5.0 -1 107
d 0.046 1 2 ping 60000 ------- 2 1.0 5.0 -1 107
+ 0.047 0 2 ping 50000 ------- 1 0.0 3.0 -1 108
d 0.047 0 2 ping 50000 ------- 1 0.0 3.0 -1 108
+ 0.047 4 2 ping 60000 ------- 2 4.0 5.0 -1 109
d 0.047 4 2 ping 60000 ------- 2 4.0 5.0 -1 109
+ 0.047 1 2 ping 60000 ------- 2 1.0 5.0 -1 110
d 0.047 1 2 ping 60000 ------- 2 1.0 5.0 -1 110
+ 0.048 0 2 ping 50000 ------- 1 0.0 3.0 -1 111
d 0.048 0 2 ping 50000 ------- 1 0.0 3.0 -1 111
+ 0.048 4 2 ping 60000 ------- 2 4.0 5.0 -1 112
d 0.048 4 2 ping 60000 ------- 2 4.0 5.0 -1 112
+ 0.048 1 2 ping 60000 ------- 2 1.0 5.0 -1 113
d 0.048 1 2 ping 60000 ------- 2 1.0 5.0 -1 113
+ 0.049 0 2 ping 50000 ------- 1 0.0 3.0 -1 114
d 0.049 0 2 ping 50000 ------- 1 0.0 3.0 -1 114
+ 0.049 4 2 ping 60000 ------- 2 4.0 5.0 -1 115
d 0.049 4 2 ping 60000 ------- 2 4.0 5.0 -1 115
+ 0.049 1 2 ping 60000 ------- 2 1.0 5.0 -1 116
d 0.049 1 2 ping 60000 ------- 2 1.0 5.0 -1 116
+ 0.05 0 2 ping 50000 ------- 1 0.0 3.0 -1 117
d 0.05 0 2 ping 50000 ------- 1 0.0 3.0 -1 117
+ 0.05 4 2 ping 60000 ------- 2 4.0 5.0 -1 118
d 0.05 4 2 ping 60000 ------- 2 4.0 5.0 -1 118
+ 0.05 1 2 ping 60000 ------- 2 1.0 5.0 -1 119
d 0.05 1 2 ping 60000 ------- 2 1.0 5.0 -1 119
- 0.051 0 2 ping 50000 ------- 1 0.0 3.0 -1 3
+ 0.051 0 2 ping 50000 ------- 1 0.0 3.0 -1 120
+ 0.051 4 2 ping 60000 ------- 2 4.0 5.0 -1 121
d 0.051 4 2 ping 60000 ------- 2 4.0 5.0 -1 121
+ 0.051 1 2 ping 60000 ------- 2 1.0 5.0 -1 122
d 0.051 1 2 ping 60000 ------- 2 1.0 5.0 -1 122
+ 0.052 0 2 ping 50000 ------- 1 0.0 3.0 -1 123
d 0.052 0 2 ping 50000 ------- 1 0.0 3.0 -1 123
+ 0.052 4 2 ping 60000 ------- 2 4.0 5.0 -1 124
d 0.052 4 2 ping 60000 ------- 2 4.0 5.0 -1 124
+ 0.052 1 2 ping 60000 ------- 2 1.0 5.0 -1 125
d 0.052 1 2 ping 60000 ------- 2 1.0 5.0 -1 125
+ 0.053 0 2 ping 50000 ------- 1 0.0 3.0 -1 126
d 0.053 0 2 ping 50000 ------- 1 0.0 3.0 -1 126
+ 0.053 4 2 ping 60000 ------- 2 4.0 5.0 -1 127
d 0.053 4 2 ping 60000 ------- 2 4.0 5.0 -1 127
+ 0.053 1 2 ping 60000 ------- 2 1.0 5.0 -1 128
d 0.053 1 2 ping 60000 ------- 2 1.0 5.0 -1 128
+ 0.054 0 2 ping 50000 ------- 1 0.0 3.0 -1 129
d 0.054 0 2 ping 50000 ------- 1 0.0 3.0 -1 129
+ 0.054 4 2 ping 60000 ------- 2 4.0 5.0 -1 130
d 0.054 4 2 ping 60000 ------- 2 4.0 5.0 -1 130
+ 0.054 1 2 ping 60000 ------- 2 1.0 5.0 -1 131
d 0.054 1 2 ping 60000 ------- 2 1.0 5.0 -1 131
+ 0.055 0 2 ping 50000 ------- 1 0.0 3.0 -1 132
d 0.055 0 2 ping 50000 ------- 1 0.0 3.0 -1 132
+ 0.055 4 2 ping 60000 ------- 2 4.0 5.0 -1 133
d 0.055 4 2 ping 60000 ------- 2 4.0 5.0 -1 133
+ 0.055 1 2 ping 60000 ------- 2 1.0 5.0 -1 134
d 0.055 1 2 ping 60000 ------- 2 1.0 5.0 -1 134
+ 0.056 0 2 ping 50000 ------- 1 0.0 3.0 -1 135
d 0.056 0 2 ping 50000 ------- 1 0.0 3.0 -1 135
+ 0.056 4 2 ping 60000 ------- 2 4.0 5.0 -1 136
d 0.056 4 2 ping 60000 ------- 2 4.0 5.0 -1 136
+ 0.056 1 2 ping 60000 ------- 2 1.0 5.0 -1 137
d 0.056 1 2 ping 60000 ------- 2 1.0 5.0 -1 137
+ 0.057 0 2 ping 50000 ------- 1 0.0 3.0 -1 138
d 0.057 0 2 ping 50000 ------- 1 0.0 3.0 -1 138
+ 0.057 4 2 ping 60000 ------- 2 4.0 5.0 -1 139
d 0.057 4 2 ping 60000 ------- 2 4.0 5.0 -1 139
+ 0.057 1 2 ping 60000 ------- 2 1.0 5.0 -1 140
d 0.057 1 2 ping 60000 ------- 2 1.0 5.0 -1 140
+ 0.058 0 2 ping 50000 ------- 1 0.0 3.0 -1 141
d 0.058 0 2 ping 50000 ------- 1 0.0 3.0 -1 141
+ 0.058 4 2 ping 60000 ------- 2 4.0 5.0 -1 142
d 0.058 4 2 ping 60000 ------- 2 4.0 5.0 -1 142
+ 0.058 1 2 ping 60000 ------- 2 1.0 5.0 -1 143
d 0.058 1 2 ping 60000 ------- 2 1.0 5.0 -1 143
- 0.059 4 2 ping 60000 ------- 2 4.0 5.0 -1 4
+ 0.059 0 2 ping 50000 ------- 1 0.0 3.0 -1 144
d 0.059 0 2 ping 50000 ------- 1 0.0 3.0 -1 144
+ 0.059 4 2 ping 60000 ------- 2 4.0 5.0 -1 145
+ 0.059 1 2 ping 60000 ------- 2 1.0 5.0 -1 146
d 0.059 1 2 ping 60000 ------- 2 1.0 5.0 -1 146
+ 0.06 0 2 ping 50000 ------- 1 0.0 3.0 -1 147
d 0.06 0 2 ping 50000 ------- 1 0.0 3.0 -1 147
+ 0.06 4 2 ping 60000 ------- 2 4.0 5.0 -1 148
d 0.06 4 2 ping 60000 ------- 2 4.0 5.0 -1 148
+ 0.06 1 2 ping 60000 ------- 2 1.0 5.0 -1 149
d 0.06 1 2 ping 60000 ------- 2 1.0 5.0 -1 149
+ 0.061 0 2 ping 50000 ------- 1 0.0 3.0 -1 150
d 0.061 0 2 ping 50000 ------- 1 0.0 3.0 -1 150
+ 0.061 4 2 ping 60000 ------- 2 4.0 5.0 -1 151
d 0.061 4 2 ping 60000 ------- 2 4.0 5.0 -1 151
+ 0.061 1 2 ping 60000 ------- 2 1.0 5.0 -1 152
d 0.061 1 2 ping 60000 ------- 2 1.0 5.0 -1 152
+ 0.062 0 2 ping 50000 ------- 1 0.0 3.0 -1 153
d 0.062 0 2 ping 50000 ------- 1 0.0 3.0 -1 153
+ 0.062 4 2 ping 60000 ------- 2 4.0 5.0 -1 154
d 0.062 4 2 ping 60000 ------- 2 4.0 5.0 -1 154
+ 0.062 1 2 ping 60000 ------- 2 1.0 5.0 -1 155
d 0.062 1 2 ping 60000 ------- 2 1.0 5.0 -1 155
+ 0.063 0 2 ping 50000 ------- 1 0.0 3.0 -1 156
d 0.063 0 2 ping 50000 ------- 1 0.0 3.0 -1 156
+ 0.063 4 2 ping 60000 ------- 2 4.0 5.0 -1 157
d 0.063 4 2 ping 60000 ------- 2 4.0 5.0 -1 157
+ 0.063 1 2 ping 60000 ------- 2 1.0 5.0 -1 158
d 0.063 1 2 ping 60000 ------- 2 1.0 5.0 -1 158
+ 0.064 0 2 ping 50000 ------- 1 0.0 3.0 -1 159
d 0.064 0 2 ping 50000 ------- 1 0.0 3.0 -1 159
+ 0.064 4 2 ping 60000 ------- 2 4.0 5.0 -1 160
d 0.064 4 2 ping 60000 ------- 2 4.0 5.0 -1 160
+ 0.064 1 2 ping 60000 ------- 2 1.0 5.0 -1 161
d 0.064 1 2 ping 60000 ------- 2 1.0 5.0 -1 161
+ 0.065 0 2 ping 50000 ------- 1 0.0 3.0 -1 162
d 0.065 0 2 ping 50000 ------- 1 0.0 3.0 -1 162
+ 0.065 4 2 ping 60000 ------- 2 4.0 5.0 -1 163
d 0.065 4 2 ping 60000 ------- 2 4.0 5.0 -1 163
+ 0.065 1 2 ping 60000 ------- 2 1.0 5.0 -1 164
d 0.065 1 2 ping 60000 ------- 2 1.0 5.0 -1 164
+ 0.066 0 2 ping 50000 ------- 1 0.0 3.0 -1 165
d 0.066 0 2 ping 50000 ------- 1 0.0 3.0 -1 165
+ 0.066 4 2 ping 60000 ------- 2 4.0 5.0 -1 166
d 0.066 4 2 ping 60000 ------- 2 4.0 5.0 -1 166
+ 0.066 1 2 ping 60000 ------- 2 1.0 5.0 -1 167
d 0.066 1 2 ping 60000 ------- 2 1.0 5.0 -1 167
+ 0.067 0 2 ping 50000 ------- 1 0.0 3.0 -1 168
d 0.067 0 2 ping 50000 ------- 1 0.0 3.0 -1 168
+ 0.067 4 2 ping 60000 ------- 2 4.0 5.0 -1 169
d 0.067 4 2 ping 60000 ------- 2 4.0 5.0 -1 169
+ 0.067 1 2 ping 60000 ------- 2 1.0 5.0 -1 170
d 0.067 1 2 ping 60000 ------- 2 1.0 5.0 -1 170
+ 0.068 0 2 ping 50000 ------- 1 0.0 3.0 -1 171
d 0.068 0 2 ping 50000 ------- 1 0.0 3.0 -1 171
+ 0.068 4 2 ping 60000 ------- 2 4.0 5.0 -1 172
d 0.068 4 2 ping 60000 ------- 2 4.0 5.0 -1 172
+ 0.068 1 2 ping 60000 ------- 2 1.0 5.0 -1 173
d 0.068 1 2 ping 60000 ------- 2 1.0 5.0 -1 173
+ 0.069 0 2 ping 50000 ------- 1 0.0 3.0 -1 174
d 0.069 0 2 ping 50000 ------- 1 0.0 3.0 -1 174
+ 0.069 4 2 ping 60000 ------- 2 4.0 5.0 -1 175
d 0.069 4 2 ping 60000 ------- 2 4.0 5.0 -1 175
+ 0.069 1 2 ping 60000 ------- 2 1.0 5.0 -1 176
d 0.069 1 2 ping 60000 ------- 2 1.0 5.0 -1 176
+ 0.07 0 2 ping 50000 ------- 1 0.0 3.0 -1 177
d 0.07 0 2 ping 50000 ------- 1 0.0 3.0 -1 177
+ 0.07 4 2 ping 60000 ------- 2 4.0 5.0 -1 178
d 0.07 4 2 ping 60000 ------- 2 4.0 5.0 -1 178
+ 0.07 1 2 ping 60000 ------- 2 1.0 5.0 -1 179
d 0.07 1 2 ping 60000 ------- 2 1.0 5.0 -1 179
+ 0.071 0 2 ping 50000 ------- 1 0.0 3.0 -1 180
d 0.071 0 2 ping 50000 ------- 1 0.0 3.0 -1 180
+ 0.071 4 2 ping 60000 ------- 2 4.0 5.0 -1 181
d 0.071 4 2 ping 60000 ------- 2 4.0 5.0 -1 181
+ 0.071 1 2 ping 60000 ------- 2 1.0 5.0 -1 182
d 0.071 1 2 ping 60000 ------- 2 1.0 5.0 -1 182
+ 0.072 0 2 ping 50000 ------- 1 0.0 3.0 -1 183
d 0.072 0 2 ping 50000 ------- 1 0.0 3.0 -1 183
+ 0.072 4 2 ping 60000 ------- 2 4.0 5.0 -1 184
d 0.072 4 2 ping 60000 ------- 2 4.0 5.0 -1 184
+ 0.072 1 2 ping 60000 ------- 2 1.0 5.0 -1 185
d 0.072 1 2 ping 60000 ------- 2 1.0 5.0 -1 185
+ 0.073 0 2 ping 50000 ------- 1 0.0 3.0 -1 186
d 0.073 0 2 ping 50000 ------- 1 0.0 3.0 -1 186
+ 0.073 4 2 ping 60000 ------- 2 4.0 5.0 -1 187
d 0.073 4 2 ping 60000 ------- 2 4.0 5.0 -1 187
+ 0.073 1 2 ping 60000 ------- 2 1.0 5.0 -1 188
d 0.073 1 2 ping 60000 ------- 2 1.0 5.0 -1 188
+ 0.074 0 2 ping 50000 ------- 1 0.0 3.0 -1 189
d 0.074 0 2 ping 50000 ------- 1 0.0 3.0 -1 189
+ 0.074 4 2 ping 60000 ------- 2 4.0 5.0 -1 190
d 0.074 4 2 ping 60000 ------- 2 4.0 5.0 -1 190
+ 0.074 1 2 ping 60000 ------- 2 1.0 5.0 -1 191
d 0.074 1 2 ping 60000 ------- 2 1.0 5.0 -1 191
+ 0.075 0 2 ping 50000 ------- 1 0.0 3.0 -1 192
d 0.075 0 2 ping 50000 ------- 1 0.0 3.0 -1 192
+ 0.075 4 2 ping 60000 ------- 2 4.0 5.0 -1 193
d 0.075 4 2 ping 60000 ------- 2 4.0 5.0 -1 193
+ 0.075 1 2 ping 60000 ------- 2 1.0 5.0 -1 194
d 0.075 1 2 ping 60000 ------- 2 1.0 5.0 -1 194
+ 0.076 0 2 ping 50000 ------- 1 0.0 3.0 -1 195
d 0.076 0 2 ping 50000 ------- 1 0.0 3.0 -1 195
+ 0.076 4 2 ping 60000 ------- 2 4.0 5.0 -1 196
d 0.076 4 2 ping 60000 ------- 2 4.0 5.0 -1 196
+ 0.076 1 2 ping 60000 ------- 2 1.0 5.0 -1 197
d 0.076 1 2 ping 60000 ------- 2 1.0 5.0 -1 197
+ 0.077 0 2 ping 50000 ------- 1 0.0 3.0 -1 198
d 0.077 0 2 ping 50000 ------- 1 0.0 3.0 -1 198
+ 0.077 4 2 ping 60000 ------- 2 4.0 5.0 -1 199
d 0.077 4 2 ping 60000 ------- 2 4.0 5.0 -1 199
+ 0.077 1 2 ping 60000 ------- 2 1.0 5.0 -1 200
d 0.077 1 2 ping 60000 ------- 2 1.0 5.0 -1 200
+ 0.078 0 2 ping 50000 ------- 1 0.0 3.0 -1 201
d 0.078 0 2 ping 50000 ------- 1 0.0 3.0 -1 201
+ 0.078 4 2 ping 60000 ------- 2 4.0 5.0 -1 202
d 0.078 4 2 ping 60000 ------- 2 4.0 5.0 -1 202
+ 0.078 1 2 ping 60000 ------- 2 1.0 5.0 -1 203
d 0.078 1 2 ping 60000 ------- 2 1.0 5.0 -1 203
+ 0.079 0 2 ping 50000 ------- 1 0.0 3.0 -1 204
d 0.079 0 2 ping 50000 ------- 1 0.0 3.0 -1 204
+ 0.079 4 2 ping 60000 ------- 2 4.0 5.0 -1 205
d 0.079 4 2 ping 60000 ------- 2 4.0 5.0 -1 205
+ 0.079 1 2 ping 60000 ------- 2 1.0 5.0 -1 206
d 0.079 1 2 ping 60000 ------- 2 1.0 5.0 -1 206
- 0.079571 1 2 ping 60000 ------- 2 1.0 5.0 -1 5
+ 0.08 0 2 ping 50000 ------- 1 0.0 3.0 -1 207
d 0.08 0 2 ping 50000 ------- 1 0.0 3.0 -1 207
+ 0.08 4 2 ping 60000 ------- 2 4.0 5.0 -1 208
d 0.08 4 2 ping 60000 ------- 2 4.0 5.0 -1 208
+ 0.08 1 2 ping 60000 ------- 2 1.0 5.0 -1 209
+ 0.081 0 2 ping 50000 ------- 1 0.0 3.0 -1 210
d 0.081 0 2 ping 50000 ------- 1 0.0 3.0 -1 210
+ 0.081 4 2 ping 60000 ------- 2 4.0 5.0 -1 211
d 0.081 4 2 ping 60000 ------- 2 4.0 5.0 -1 211
+ 0.081 1 2 ping 60000 ------- 2 1.0 5.0 -1 212
d 0.081 1 2 ping 60000 ------- 2 1.0 5.0 -1 212
+ 0.082 0 2 ping 50000 ------- 1 0.0 3.0 -1 213
d 0.082 0 2 ping 50000 ------- 1 0.0 3.0 -1 213
+ 0.082 4 2 ping 60000 ------- 2 4.0 5.0 -1 214
d 0.082 4 2 ping 60000 ------- 2 4.0 5.0 -1 214
+ 0.082 1 2 ping 60000 ------- 2 1.0 5.0 -1 215
d 0.082 1 2 ping 60000 ------- 2 1.0 5.0 -1 215
+ 0.083 0 2 ping 50000 ------- 1 0.0 3.0 -1 216
d 0.083 0 2 ping 50000 ------- 1 0.0 3.0 -1 216
+ 0.083 4 2 ping 60000 ------- 2 4.0 5.0 -1 217
d 0.083 4 2 ping 60000 ------- 2 4.0 5.0 -1 217
+ 0.083 1 2 ping 60000 ------- 2 1.0 5.0 -1 218
d 0.083 1 2 ping 60000 ------- 2 1.0 5.0 -1 218
+ 0.084 0 2 ping 50000 ------- 1 0.0 3.0 -1 219
d 0.084 0 2 ping 50000 ------- 1 0.0 3.0 -1 219
+ 0.084 4 2 ping 60000 ------- 2 4.0 5.0 -1 220
d 0.084 4 2 ping 60000 ------- 2 4.0 5.0 -1 220
+ 0.084 1 2 ping 60000 ------- 2 1.0 5.0 -1 221
d 0.084 1 2 ping 60000 ------- 2 1.0 5.0 -1 221
+ 0.085 0 2 ping 50000 ------- 1 0.0 3.0 -1 222
d 0.085 0 2 ping 50000 ------- 1 0.0 3.0 -1 222
+ 0.085 4 2 ping 60000 ------- 2 4.0 5.0 -1 223
d 0.085 4 2 ping 60000 ------- 2 4.0 5.0 -1 223
+ 0.085 1 2 ping 60000 ------- 2 1.0 5.0 -1 224
d 0.085 1 2 ping 60000 ------- 2 1.0 5.0 -1 224
+ 0.086 0 2 ping 50000 ------- 1 0.0 3.0 -1 225
d 0.086 0 2 ping 50000 ------- 1 0.0 3.0 -1 225
+ 0.086 4 2 ping 60000 ------- 2 4.0 5.0 -1 226
d 0.086 4 2 ping 60000 ------- 2 4.0 5.0 -1 226
+ 0.086 1 2 ping 60000 ------- 2 1.0 5.0 -1 227
d 0.086 1 2 ping 60000 ------- 2 1.0 5.0 -1 227
+ 0.087 0 2 ping 50000 ------- 1 0.0 3.0 -1 228
d 0.087 0 2 ping 50000 ------- 1 0.0 3.0 -1 228
+ 0.087 4 2 ping 60000 ------- 2 4.0 5.0 -1 229
d 0.087 4 2 ping 60000 ------- 2 4.0 5.0 -1 229
+ 0.087 1 2 ping 60000 ------- 2 1.0 5.0 -1 230
d 0.087 1 2 ping 60000 ------- 2 1.0 5.0 -1 230
+ 0.088 0 2 ping 50000 ------- 1 0.0 3.0 -1 231
d 0.088 0 2 ping 50000 ------- 1 0.0 3.0 -1 231
+ 0.088 4 2 ping 60000 ------- 2 4.0 5.0 -1 232
d 0.088 4 2 ping 60000 ------- 2 4.0 5.0 -1 232
+ 0.088 1 2 ping 60000 ------- 2 1.0 5.0 -1 233
d 0.088 1 2 ping 60000 ------- 2 1.0 5.0 -1 233
+ 0.089 0 2 ping 50000 ------- 1 0.0 3.0 -1 234
d 0.089 0 2 ping 50000 ------- 1 0.0 3.0 -1 234
+ 0.089 4 2 ping 60000 ------- 2 4.0 5.0 -1 235
d 0.089 4 2 ping 60000 ------- 2 4.0 5.0 -1 235
+ 0.089 1 2 ping 60000 ------- 2 1.0 5.0 -1 236
d 0.089 1 2 ping 60000 ------- 2 1.0 5.0 -1 236
+ 0.09 0 2 ping 50000 ------- 1 0.0 3.0 -1 237
d 0.09 0 2 ping 50000 ------- 1 0.0 3.0 -1 237
+ 0.09 4 2 ping 60000 ------- 2 4.0 5.0 -1 238
d 0.09 4 2 ping 60000 ------- 2 4.0 5.0 -1 238
+ 0.09 1 2 ping 60000 ------- 2 1.0 5.0 -1 239
d 0.09 1 2 ping 60000 ------- 2 1.0 5.0 -1 239
- 0.091 0 2 ping 50000 ------- 1 0.0 3.0 -1 120
+ 0.091 0 2 ping 50000 ------- 1 0.0 3.0 -1 240
+ 0.091 4 2 ping 60000 ------- 2 4.0 5.0 -1 241
d 0.091 4 2 ping 60000 ------- 2 4.0 5.0 -1 241
+ 0.091 1 2 ping 60000 ------- 2 1.0 5.0 -1 242
d 0.091 1 2 ping 60000 ------- 2 1.0 5.0 -1 242
+ 0.092 0 2 ping 50000 ------- 1 0.0 3.0 -1 243
d 0.092 0 2 ping 50000 ------- 1 0.0 3.0 -1 243
+ 0.092 4 2 ping 60000 ------- 2 4.0 5.0 -1 244
d 0.092 4 2 ping 60000 ------- 2 4.0 5.0 -1 244
+ 0.092 1 2 ping 60000 ------- 2 1.0 5.0 -1 245
d 0.092 1 2 ping 60000 ------- 2 1.0 5.0 -1 245
+ 0.093 0 2 ping 50000 ------- 1 0.0 3.0 -1 246
d 0.093 0 2 ping 50000 ------- 1 0.0 3.0 -1 246
+ 0.093 4 2 ping 60000 ------- 2 4.0 5.0 -1 247
d 0.093 4 2 ping 60000 ------- 2 4.0 5.0 -1 247
+ 0.093 1 2 ping 60000 ------- 2 1.0 5.0 -1 248
d 0.093 1 2 ping 60000 ------- 2 1.0 5.0 -1 248
+ 0.094 0 2 ping 50000 ------- 1 0.0 3.0 -1 249
d 0.094 0 2 ping 50000 ------- 1 0.0 3.0 -1 249
+ 0.094 4 2 ping 60000 ------- 2 4.0 5.0 -1 250
d 0.094 4 2 ping 60000 ------- 2 4.0 5.0 -1 250
+ 0.094 1 2 ping 60000 ------- 2 1.0 5.0 -1 251
d 0.094 1 2 ping 60000 ------- 2 1.0 5.0 -1 251
+ 0.095 0 2 ping 50000 ------- 1 0.0 3.0 -1 252
d 0.095 0 2 ping 50000 ------- 1 0.0 3.0 -1 252
+ 0.095 4 2 ping 60000 ------- 2 4.0 5.0 -1 253
d 0.095 4 2 ping 60000 ------- 2 4.0 5.0 -1 253
+ 0.095 1 2 ping 60000 ------- 2 1.0 5.0 -1 254
d 0.095 1 2 ping 60000 ------- 2 1.0 5.0 -1 254
+ 0.096 0 2 ping 50000 ------- 1 0.0 3.0 -1 255
d 0.096 0 2 ping 50000 ------- 1 0.0 3.0 -1 255
+ 0.096 4 2 ping 60000 ------- 2 4.0 5.0 -1 256
d 0.096 4 2 ping 60000 ------- 2 4.0 5.0 -1 256
+ 0.096 1 2 ping 60000 ------- 2 1.0 5.0 -1 257
d 0.096 1 2 ping 60000 ------- 2 1.0 5.0 -1 257
+ 0.097 0 2 ping 50000 ------- 1 0.0 3.0 -1 258
d 0.097 0 2 ping 50000 ------- 1 0.0 3.0 -1 258
+ 0.097 4 2 ping 60000 ------- 2 4.0 5.0 -1 259
d 0.097 4 2 ping 60000 ------- 2 4.0 5.0 -1 259
+ 0.097 1 2 ping 60000 ------- 2 1.0 5.0 -1 260
d 0.097 1 2 ping 60000 ------- 2 1.0 5.0 -1 260
+ 0.098 0 2 ping 50000 ------- 1 0.0 3.0 -1 261
d 0.098 0 2 ping 50000 ------- 1 0.0 3.0 -1 261
+ 0.098 4 2 ping 60000 ------- 2 4.0 5.0 -1 262
d 0.098 4 2 ping 60000 ------- 2 4.0 5.0 -1 262
+ 0.098 1 2 ping 60000 ------- 2 1.0 5.0 -1 263
d 0.098 1 2 ping 60000 ------- 2 1.0 5.0 -1 263
+ 0.099 0 2 ping 50000 ------- 1 0.0 3.0 -1 264
d 0.099 0 2 ping 50000 ------- 1 0.0 3.0 -1 264
+ 0.099 4 2 ping 60000 ------- 2 4.0 5.0 -1 265
d 0.099 4 2 ping 60000 ------- 2 4.0 5.0 -1 265
+ 0.099 1 2 ping 60000 ------- 2 1.0 5.0 -1 266
d 0.099 1 2 ping 60000 ------- 2 1.0 5.0 -1 266
+ 0.1 0 2 ping 50000 ------- 1 0.0 3.0 -1 267
d 0.1 0 2 ping 50000 ------- 1 0.0 3.0 -1 267
+ 0.1 4 2 ping 60000 ------- 2 4.0 5.0 -1 268
d 0.1 4 2 ping 60000 ------- 2 4.0 5.0 -1 268
+ 0.1 1 2 ping 60000 ------- 2 1.0 5.0 -1 269
d 0.1 1 2 ping 60000 ------- 2 1.0 5.0 -1 269
+ 0.101 0 2 ping 50000 ------- 1 0.0 3.0 -1 270
d 0.101 0 2 ping 50000 ------- 1 0.0 3.0 -1 270
+ 0.101 4 2 ping 60000 ------- 2 4.0 5.0 -1 271
d 0.101 4 2 ping 60000 ------- 2 4.0 5.0 -1 271
+ 0.101 1 2 ping 60000 ------- 2 1.0 5.0 -1 272
d 0.101 1 2 ping 60000 ------- 2 1.0 5.0 -1 272
+ 0.102 0 2 ping 50000 ------- 1 0.0 3.0 -1 273
d 0.102 0 2 ping 50000 ------- 1 0.0 3.0 -1 273
+ 0.102 4 2 ping 60000 ------- 2 4.0 5.0 -1 274
d 0.102 4 2 ping 60000 ------- 2 4.0 5.0 -1 274
+ 0.102 1 2 ping 60000 ------- 2 1.0 5.0 -1 275
d 0.102 1 2 ping 60000 ------- 2 1.0 5.0 -1 275
+ 0.103 0 2 ping 50000 ------- 1 0.0 3.0 -1 276
d 0.103 0 2 ping 50000 ------- 1 0.0 3.0 -1 276
+ 0.103 4 2 ping 60000 ------- 2 4.0 5.0 -1 277
d 0.103 4 2 ping 60000 ------- 2 4.0 5.0 -1 277
+ 0.103 1 2 ping 60000 ------- 2 1.0 5.0 -1 278
d 0.103 1 2 ping 60000 ------- 2 1.0 5.0 -1 278
+ 0.104 0 2 ping 50000 ------- 1 0.0 3.0 -1 279
d 0.104 0 2 ping 50000 ------- 1 0.0 3.0 -1 279
+ 0.104 4 2 ping 60000 ------- 2 4.0 5.0 -1 280
d 0.104 4 2 ping 60000 ------- 2 4.0 5.0 -1 280
+ 0.104 1 2 ping 60000 ------- 2 1.0 5.0 -1 281
d 0.104 1 2 ping 60000 ------- 2 1.0 5.0 -1 281
+ 0.105 0 2 ping 50000 ------- 1 0.0 3.0 -1 282
d 0.105 0 2 ping 50000 ------- 1 0.0 3.0 -1 282
+ 0.105 4 2 ping 60000 ------- 2 4.0 5.0 -1 283
d 0.105 4 2 ping 60000 ------- 2 4.0 5.0 -1 283
+ 0.105 1 2 ping 60000 ------- 2 1.0 5.0 -1 284
d 0.105 1 2 ping 60000 ------- 2 1.0 5.0 -1 284
+ 0.106 0 2 ping 50000 ------- 1 0.0 3.0 -1 285
d 0.106 0 2 ping 50000 ------- 1 0.0 3.0 -1 285
+ 0.106 4 2 ping 60000 ------- 2 4.0 5.0 -1 286
d 0.106 4 2 ping 60000 ------- 2 4.0 5.0 -1 286
+ 0.106 1 2 ping 60000 ------- 2 1.0 5.0 -1 287
d 0.106 1 2 ping 60000 ------- 2 1.0 5.0 -1 287
- 0.107 4 2 ping 60000 ------- 2 4.0 5.0 -1 145
+ 0.107 0 2 ping 50000 ------- 1 0.0 3.0 -1 288
d 0.107 0 2 ping 50000 ------- 1 0.0 3.0 -1 288
+ 0.107 4 2 ping 60000 ------- 2 4.0 5.0 -1 289
+ 0.107 1 2 ping 60000 ------- 2 1.0 5.0 -1 290
d 0.107 1 2 ping 60000 ------- 2 1.0 5.0 -1 290
+ 0.108 0 2 ping 50000 ------- 1 0.0 3.0 -1 291
d 0.108 0 2 ping 50000 ------- 1 0.0 3.0 -1 291
+ 0.108 4 2 ping 60000 ------- 2 4.0 5.0 -1 292
d 0.108 4 2 ping 60000 ------- 2 4.0 5.0 -1 292
+ 0.108 1 2 ping 60000 ------- 2 1.0 5.0 -1 293
d 0.108 1 2 ping 60000 ------- 2 1.0 5.0 -1 293
+ 0.109 0 2 ping 50000 ------- 1 0.0 3.0 -1 294
d 0.109 0 2 ping 50000 ------- 1 0.0 3.0 -1 294
+ 0.109 4 2 ping 60000 ------- 2 4.0 5.0 -1 295
d 0.109 4 2 ping 60000 ------- 2 4.0 5.0 -1 295
+ 0.109 1 2 ping 60000 ------- 2 1.0 5.0 -1 296
d 0.109 1 2 ping 60000 ------- 2 1.0 5.0 -1 296
+ 0.11 0 2 ping 50000 ------- 1 0.0 3.0 -1 297
d 0.11 0 2 ping 50000 ------- 1 0.0 3.0 -1 297
+ 0.11 4 2 ping 60000 ------- 2 4.0 5.0 -1 298
d 0.11 4 2 ping 60000 ------- 2 4.0 5.0 -1 298
+ 0.11 1 2 ping 60000 ------- 2 1.0 5.0 -1 299
d 0.11 1 2 ping 60000 ------- 2 1.0 5.0 -1 299
+ 0.111 0 2 ping 50000 ------- 1 0.0 3.0 -1 300
d 0.111 0 2 ping 50000 ------- 1 0.0 3.0 -1 300
+ 0.111 4 2 ping 60000 ------- 2 4.0 5.0 -1 301
d 0.111 4 2 ping 60000 ------- 2 4.0 5.0 -1 301
+ 0.111 1 2 ping 60000 ------- 2 1.0 5.0 -1 302
d 0.111 1 2 ping 60000 ------- 2 1.0 5.0 -1 302
+ 0.112 0 2 ping 50000 ------- 1 0.0 3.0 -1 303
d 0.112 0 2 ping 50000 ------- 1 0.0 3.0 -1 303
+ 0.112 4 2 ping 60000 ------- 2 4.0 5.0 -1 304
d 0.112 4 2 ping 60000 ------- 2 4.0 5.0 -1 304
+ 0.112 1 2 ping 60000 ------- 2 1.0 5.0 -1 305
d 0.112 1 2 ping 60000 ------- 2 1.0 5.0 -1 305
+ 0.113 0 2 ping 50000 ------- 1 0.0 3.0 -1 306
d 0.113 0 2 ping 50000 ------- 1 0.0 3.0 -1 306
+ 0.113 4 2 ping 60000 ------- 2 4.0 5.0 -1 307
d 0.113 4 2 ping 60000 ------- 2 4.0 5.0 -1 307
+ 0.113 1 2 ping 60000 ------- 2 1.0 5.0 -1 308
d 0.113 1 2 ping 60000 ------- 2 1.0 5.0 -1 308
+ 0.114 0 2 ping 50000 ------- 1 0.0 3.0 -1 309
d 0.114 0 2 ping 50000 ------- 1 0.0 3.0 -1 309
+ 0.114 4 2 ping 60000 ------- 2 4.0 5.0 -1 310
d 0.114 4 2 ping 60000 ------- 2 4.0 5.0 -1 310
+ 0.114 1 2 ping 60000 ------- 2 1.0 5.0 -1 311
d 0.114 1 2 ping 60000 ------- 2 1.0 5.0 -1 311
+ 0.115 0 2 ping 50000 ------- 1 0.0 3.0 -1 312
d 0.115 0 2 ping 50000 ------- 1 0.0 3.0 -1 312
+ 0.115 4 2 ping 60000 ------- 2 4.0 5.0 -1 313
d 0.115 4 2 ping 60000 ------- 2 4.0 5.0 -1 313
+ 0.115 1 2 ping 60000 ------- 2 1.0 5.0 -1 314
d 0.115 1 2 ping 60000 ------- 2 1.0 5.0 -1 314
+ 0.116 0 2 ping 50000 ------- 1 0.0 3.0 -1 315
d 0.116 0 2 ping 50000 ------- 1 0.0 3.0 -1 315
+ 0.116 4 2 ping 60000 ------- 2 4.0 5.0 -1 316