n -t 0 -s 2 -S DLABEL -l "Router" -L ""
n -t 0 -s 0 -S DLABEL -l "Ping0" -L ""
n -t 0 -s 1 -S DLABEL -l "Ping1" -L ""
n -t 0 -s 3 -S DLABEL -l "Ping4" -L ""
n -t 0 -s 4 -S DLABEL -l "Ping5" -L ""
n -t 0 -s 5 -S DLABEL -l "Ping6" -L ""
V -t * -v 1.0a5 -a 0
A -t * -n 1 -p 0 -o 0x7fffffff -c 30 -a 1
A -t * -h 1 -m 1073741823 -s 0
c -t * -i 1 -n red
c -t * -i 2 -n blue
n -t * -a 4 -s 4 -S UP -v circle -c black -i black
n -t * -a 0 -s 0 -S UP -v circle -c black -i black
n -t * -a 5 -s 5 -S UP -v circle -c black -i black
n -t * -a 1 -s 1 -S UP -v circle -c black -i black
n -t * -a 2 -s 2 -S UP -v circle -c black -i black
n -t * -a 3 -s 3 -S UP -v circle -c black -i black
l -t * -s 0 -d 2 -S UP -r 10000000 -D 0.29999999999999999 -c black
l -t * -s 3 -d 2 -S UP -r 7000000 -D 0.29999999999999999 -c black
l -t * -s 4 -d 2 -S UP -r 10000000 -D 0.29999999999999999 -c black
l -t * -s 1 -d 2 -S UP -r 7000000 -D 0.29999999999999999 -c black
l -t * -s 2 -d 5 -S UP -r 3000000 -D 0.29999999999999999 -c black
+ -t 0.011 -s 0 -d 2 -p ping -e 50000 -c 1 -i 0 -a 1 -x {0.0 3.0 -1 ------- null}
- -t 0.011 -s 0 -d 2 -p ping -e 50000 -c 1 -i 0 -a 1 -x {0.0 3.0 -1 ------- null}
h -t 0.011 -s 0 -d 2 -p ping -e 50000 -c 1 -i 0 -a 1 -x {0.0 3.0 -1 ------- null}
+ -t 0.011 -s 4 -d 2 -p ping -e 60000 -c 2 -i 1 -a 2 -x {4.0 5.0 -1 ------- null}
- -t 0.011 -s 4 -d 2 -p ping -e 60000 -c 2 -i 1 -a 2 -x {4.0 5.0 -1 ------- null}
h -t 0.011 -s 4 -d 2 -p ping -e 60000 -c 2 -i 1 -a 2 -x {4.0 5.0 -1 ------- null}
+ -t 0.011 -s 1 -d 2 -p ping -e 60000 -c 2 -i 2 -a 2 -x {1.0 5.0 -1 ------- null}
- -t 0.011 -s 1 -d 2 -p ping -e 60000 -c 2 -i 2 -a 2 -x {1.0 5.0 -1 ------- null}
h -t 0.011 -s 1 -d 2 -p ping -e 60000 -c 2 -i 2 -a 2 -x {1.0 5.0 -1 ------- null}
+ -t 0.012 -s 0 -d 2 -p ping -e 50000 -c 1 -i 3 -a 1 -x {0.0 3.0 -1 ------- null}
+ -t 0.012 -s 4 -d 2 -p ping -e 60000 -c 2 -i 4 -a 2 -x {4.0 5.0 -1 ------- null}
+ -t 0.012 -s 1 -d 2 -p ping -e 60000 -c 2 -i 5 -a 2 -x {1.0 5.0 -1 ------- null}
+ -t 0.013 -s 0 -d 2 -p ping -e 50000 -c 1 -i 6 -a 1 -x {0.0 3.0 -1 ------- null}
d -t 0.013 -s 0 -d 2 -p ping -e 50000 -c 1 -i 6 -a 1 -x {0.0 3.0 -1 ------- null}
+ -t 0.013 -s 4 -d 2 -p ping -e 60000 -c 2 -i 7 -a 2 -x {4.0 5.0 -1 ------- null}
d -t 0.013 -s 4 -d 2 -p ping -e 60000 -c 2 -i 7 -a 2 -x {4.0 5.0 -1 ------- null}
+ -t 0.013 -s 1 -d 2 -p ping -e 60000 -c 2 -i 8 -a 2 -x {1.0 5.0 -1 ------- null}
d -t 0.013 -s 1 -d 2 -p ping -e 60000 -c 2 -i 8 -a 2 -x {1.0 5.0 -1 ------- null}
+ -t 0.014 -s 0 -d 2 -p ping -e 50000 -c 1 -i 9 -a 1 -x {0.0 3.0 -1 ------- null}
d -t 0.014 -s 0 -d 2 -p ping -e 50000 -c 1 -i 9 -a 1 -x {0.0 3.0 -1 ------- null}
+ -t 0.014 -s 4 -d 2 -p ping -e 60000 -c 2 -i 10 -a 2 -x {4.0 5.0 -1 ------- null}
d -t 0.014 -s 4 -d 2 -p ping -e 60000 -c 2 -i 10 -a 2 -x {4.0 5.0 -1 ------- null}
+ -t 0.014 -s 1 -d 2 -p ping -e 60000 -c 2 -i 11 -a 2 -x {1.0 5.0 -1 ------- null}
d -t 0.014 -s 1 -d 2 -p ping -e 60000 -c 2 -i 11 -a 2 -x {1.0 5.0 -1 ------- null}
+ -t 0.015 -s 0 -d 2 -p ping -e 50000 -c 1 -i 12 -a 1 -x {0.0 3.0 -1 ------- null}
d -t 0.015 -s 0 -d 2 -p ping -e 50000 -c 1 -i 12 -a 1 -x {0.0 3.0 -1 ------- null}
+ -t 0.015 -s 4 -d 2 -p ping -e 60000 -c 2 -i 13 -a 2 -x {4.0 5.0 -1 ------- null}
d -t 0.015 -s 4 -d 2 -p ping -e 60000 -c 2 -i 13 -a 2 -x {4.0 5.0 -1 ------- null}
+ -t 0.015 -s 1 -d 2 -p ping -e 60000 -c 2 -i 14 -a 2 -x {1.0 5.0 -1 ------- null}
d -t 0.015 -s 1 -d 2 -p ping -e 60000 -c 2 -i 14 -a 2 -x {1.0 5.0 -1 ------- null}
+ -t 0.016 -s 0 -d 2 -p ping -e 50000 -c 1 -i 15 -a 1 -x {0.0 3.0 -1 ------- null}
d -t 0.016 -s 0 -d 2 -p ping -e 50000 -c 1 -i 15 -a 1 -x {0.0 3.0 -1 ------- null}
+ -t 0.016 -s 4 -d 2 -p ping -e 60000 -c 2 -i 16 -a 2 -x {4.0 5.0 -1 ------- null}
d -t 0.016 -s 4 -d 2 -p ping -e 60000 -c 2 -i 16 -a 2 -x {4.0 5.0 -1 ------- null}
+ -t 0.016 -s 1 -d 2 -p ping -e 60000 -c 2 -i 17 -a 2 -x {1.0 5.0 -1 ------- null}
d -t 0.016 -s 1 -d 2 -p ping -e 60000 -c 2 -i 17 -a 2 -x {1.0 5.0 -1 ------- null}
+ -t 0.017 -s 0 -d 2 -p ping -e 50000 -c 1 -i 18 -a 1 -x {0.0 3.0 -1 ------- null}
d -t 0.017 -s 0 -d 2 -p ping -e 50000 -c 1 -i 18 -a 1 -x {0.0 3.0 -1 ------- null}
+ -t 0.017 -s 4 -d 2 -p ping -e 60000 -c 2 -i 19 -a 2 -x {4.0 5.0 -1 ------- null}
d -t 0.017 -s 4 -d 2 -p ping -e 60000 -c 2 -i 19 -a 2 -x {4.0 5.0 -1 ------- null}
+ -t 0.017 -s 1 -d 2 -p ping -e 60000 -c 2 -i 20 -a 2 -x {1.0 5.0 -1 ------- null}
d -t 0.017 -s 1 -d 2 -p ping -e 60000 -c 2 -i 20 -a 2 -x {1.0 5.0 -1 ------- null}
+ -t 0.018 -s 0 -d 2 -p ping -e 50000 -c 1 -i 21 -a 1 -x {0.0 3.0 -1 ------- null}
d -t 0.018 -s 0 -d 2 -p ping -e 50000 -c 1 -i 21 -a 1 -x {0.0 3.0 -1 ------- null}
+ -t 0.018 -s 4 -d 2 -p ping -e 60000 -c 2 -i 22 -a 2 -x {4.0 5.0 -1 ------- null}
d -t 0.018 -s 4 -d 2 -p ping -e 60000 -c 2 -i 22 -a 2 -x {4.0 5.0 -1 ------- null}
+ -t 0.018 -s 1 -d 2 -p ping -e 60000 -c 2 -i 23 -a 2 -x {1.0 5.0 -1 ------- null}
d -t 0.018 -s 1 -d 2 -p ping -e 60000 -c 2 -i 23 -a 2 -x {1.0 5.0 -1 ------- null}
+ -t 0.019 -s 0 -d 2 -p ping -e 50000 -c 1 -i 24 -a 1 -x {0.0 3.0 -1 ------- null}
d -t 0.019 -s 0 -d 2 -p ping -e 50000 -c 1 -i 24 -a 1 -x {0.0 3.0 -1 ------- null}
+ -t 0.019 -s 4 -d 2 -p ping -e 60000 -c 2 -i 25 -a 2 -x {4.0 5.0 -1 ------- null}
d -t 0.019 -s 4 -d 2 -p ping -e 60000 -c 2 -i 25 -a 2 -x {4.0 5.0 -1 ------- null}
+ -t 0.019 -s 1 -d 2 -p ping -e 60000 -c 2 -i 26 -a 2 -x {1.0 5.0 -1 ------- null}
d -t 0.019 -s 1 -d 2 -p ping -e 60000 -c 2 -i 26 -a 2 -x {1.0 5.0 -1 ------- null}
+ -t 0.02 -s 0 -d 2 -p ping -e 50000 -c 1 -i 27 -a 1 -x {0.0 3.0 -1 ------- null}
d -t 0.02 -s 0 -d 2 -p ping -e 50000 -c 1 -i 27 -a 1 -x {0.0 3.0 -1 ------- null}
+ -t 0.02 -s 4 -d 2 -p ping -e 60000 -c 2 -i 28 -a 2 -x {4.0 5.0 -1 ------- null}
d -t 0.02 -s 4 -d 2 -p ping -e 60000 -c 2 -i 28 -a 2 -x {4.0 5.0 -1 ------- null}
+ -t 0.02 -s 1 -d 2 -p ping -e 60000 -c 2 -i 29 -a 2 -x {1.0 5.0 -1 ------- null}
d -t 0.02 -s 1 -d 2 -p ping -e 60000 -c 2 -i 29 -a 2 -x {1.0 5.0 -1 ------- null}
+ -t 0.021 -s 0 -d 2 -p ping -e 50000 -c 1 -i 30 -a 1 -x {0.0 3.0 -1 ------- null}
d -t 0.021 -s 0 -d 2 -p ping -e 50000 -c 1 -i 30 -a 1 -x {0.0 3.0 -1 ------- null}
+ -t 0.021 -s 4 -d 2 -p ping -e 60000 -c 2 -i 31 -a 2 -x {4.0 5.0 -1 ------- null}
d -t 0.021 -s 4 -d 2 -p ping -e 60000 -c 2 -i 31 -a 2 -x {4.0 5.0 -1 ------- null}
+ -t 0.021 -s 1 -d 2 -p ping -e 60000 -c 2 -i 32 -a 2 -x {1.0 5.0 -1 ------- null}
d -t 0.021 -s 1 -d 2 -p ping -e 60000 -c 2 -i 32 -a 2 -x {1.0 5.0 -1 ------- null}
+ -t 0.022 -s 0 -d 2 -p ping -e 50000 -c 1 -i 33 -a 1 -x {0.0 3.0 -1 ------- null}
d -t 0.022 -s 0 -d 2 -p ping -e 50000 -c 1 -i 33 -a 1 -x {0.0 3.0 -1 ------- null}
+ -t 0.022 -s 4 -d 2 -p ping -e 60000 -c 2 -i 34 -a 2 -x {4.0 5.0 -1 ------- null}
d -t 0.022 -s 4 -d 2 -p ping -e 60000 -c 2 -i 34 -a 2 -x {4.0 5.0 -1 ------- null}
+ -t 0.022 -s 1 -d 2 -p ping -e 60000 -c 2 -i 35 -a 2 -x {1.0 5.0 -1 ------- null}
d -t 0.022 -s 1 -d 2 -p ping -e 60000 -c 2 -i 35 -a 2 -x {1.0 5.0 -1 ------- null}
+ -t 0.023 -s 0 -d 2 -p ping -e 50000 -c 1 -i 36 -a 1 -x {0.0 3.0 -1 ------- null}
d -t 0.023 -s 0 -d 2 -p ping -e 50000 -c 1 -i 36 -a 1 -x {0.0 3.0 -1 ------- null}
+ -t 0.023 -s 4 -d 2 -p ping -e 60000 -c 2 -i 37 -a 2 -x {4.0 5.0 -1 ------- null}
d -t 0.023 -s 4 -d 2 -p ping -e 60000 -c 2 -i 37 -a 2 -x {4.0 5.0 -1 ------- null}
+ -t 0.023 -s 1 -d 2 -p ping -e 60000 -c 2 -i 38 -a 2 -x {1.0 5.0 -1 ------- null}
d -t 0.023 -s 1 -d 2 -p ping -e 60000 -c 2 -i 38 -a 2 -x {1.0 5.0 -1 ------- null}
+ -t 0.024 -s 0 -d 2 -p ping -e 50000 -c 1 -i 39 -a 1 -x {0.0 3.0 -1 ------- null}
d -t 0.024 -s 0 -d 2 -p ping -e 50000 -c 1 -i 39 -a 1 -x {0.0 3.0 -1 ------- null}
+ -t 0.024 -s 4 -d 2 -p ping -e 60000 -c 2 -i 40 -a 2 -x {4.0 5.0 -1 ------- null}
d -t 0.024 -s 4 -d 2 -p ping -e 60000 -c 2 -i 40 -a 2 -x {4.0 5.0 -1 ------- null}
+ -t 0.024 -s 1 -d 2 -p ping -e 60000 -c 2 -i 41 -a 2 -x {1.0 5.0 -1 ------- null}
d -t 0.024 -s 1 -d 2 -p ping -e 60000 -c 2 -i 41 -a 2 -x {1.0 5.0 -1 ------- null}
+ -t 0.025 -s 0 -d 2 -p ping -e 50000 -c 1 -i 42 -a 1 -x {0.0 3.0 -1 ------- null}
d -t 0.025 -s 0 -d 2 -p ping -e 50000 -c 1 -i 42 -a 1 -x {0.0 3.0 -1 ------- null}
+ -t 0.025 -s 4 -d 2 -p ping -e 60000 -c 2 -i 43 -a 2 -x {4.0 5.0 -1 ------- null}
d -t 0.025 -s 4 -d 2 -p ping -e 60000 -c 2 -i 43 -a 2 -x {4.0 5.0 -1 ------- null}
+ -t 0.025 -s 1 -d 2 -p ping -e 60000 -c 2 -i 44 -a 2 -x {1.0 5.0 -1 ------- null}
d -t 0.025 -s 1 -d 2 -p ping -e 60000 -c 2 -i 44 -a 2 -x {1.0 5.0 -1 ------- null}
+ -t 0.026 -s 0 -d 2 -p ping -e 50000 -c 1 -i 45 -a 1 -x {0.0 3.0 -1 ------- null}
d -t 0.026 -s 0 -d 2 -p ping -e 50000 -c 1 -i 45 -a 1 -x {0.0 3.0 -1 ------- null}
+ -t 0.026 -s 4 -d 2 -p ping -e 60000 -c 2 -i 46 -a 2 -x {4.0 5.0 -1 ------- null}
d -t 0.026 -s 4 -d 2 -p ping -e 60000 -c 2 -i 46 -a 2 -x {4.0 5.0 -1 ------- null}
+ -t 0.026 -s 1 -d 2 -p ping -e 60000 -c 2 -i 47 -a 2 -x {1.0 5.0 -1 ------- null}
d -t 0.026 -s 1 -d 2 -p ping -e 60000 -c 2 -i 47 -a 2 -x {1.0 5.0 -1 ------- null}
+ -t 0.027 -s 0 -d 2 -p ping -e 50000 -c 1 -i 48 -a 1 -x {0.0 3.0 -1 ------- null}
d -t 0.027 -s 0 -d 2 -p ping -e 50000 -c 1 -i 48 -a 1 -x {0.0 3.0 -1 ------- null}
+ -t 0.027 -s 4 -d 2 -p ping -e 60000 -c 2 -i 49 -a 2 -x {4.0 5.0 -1 ------- null}
d -t 0.027 -s 4 -d 2 -p ping -e 60000 -c 2 -i 49 -a 2 -x {4.0 5.0 -1 ------- null}
+ -t 0.027 -s 1 -d 2 -p ping -e 60000 -c 2 -i 50 -a 2 -x {1.0 5.0 -1 ------- null}
d -t 0.027 -s 1 -d 2 -p ping -e 60000 -c 2 -i 50 -a 2 -x {1.0 5.0 -1 ------- null}
+ -t 0.028 -s 0 -d 2 -p ping -e 50000 -c 1 -i 51 -a 1 -x {0.0 3.0 -1 ------- null}
d -t 0.028 -s 0 -d 2 -p ping -e 50000 -c 1 -i 51 -a 1 -x {0.0 3.0 -1 ------- null}
+ -t 0.028 -s 4 -d 2 -p ping -e 60000 -c 2 -i 52 -a 2 -x {4.0 5.0 -1 ------- null}
d -t 0.028 -s 4 -d 2 -p ping -e 60000 -c 2 -i 52 -a 2 -x {4.0 5.0 -1 ------- null}
+ -t 0.028 -s 1 -d 2 -p ping -e 60000 -c 2 -i 53 -a 2 -x {1.0 5.0 -1 ------- null}
d -t 0.028 -s 1 -d 2 -p ping -e 60000 -c 2 -i 53 -a 2 -x {1.0 5.0 -1 ------- null}
+ -t 0.029 -s 0 -d 2 -p ping -e 50000 -c 1 -i 54 -a 1 -x {0.0 3.0 -1 ------- null}
d -t 0.029 -s 0 -d 2 -p ping -e 50000 -c 1 -i 54 -a 1 -x {0.0 3.0 -1 ------- null}
+ -t 0.029 -s 4 -d 2 -p ping -e 60000 -c 2 -i 55 -a 2 -x {4.0 5.0 -1 ------- null}
d -t 0.029 -s 4 -d 2 -p ping -e 60000 -c 2 -i 55 -a 2 -x {4.0 5.0 -1 ------- null}
+ -t 0.029 -s 1 -d 2 -p ping -e 60000 -c 2 -i 56 -a 2 -x {1.0 5.0 -1 ------- null}
d -t 0.029 -s 1 -d 2 -p ping -e 60000 -c 2 -i 56 -a 2 -x {1.0 5.0 -1 ------- null}
+ -t 0.03 -s 0 -d 2 -p ping -e 50000 -c 1 -i 57 -a 1 -x {0.0 3.0 -1 ------- null}
d -t 0.03 -s 0 -d 2 -p ping -e 50000 -c 1 -i 57 -a 1 -x {0.0 3.0 -1 ------- null}
+ -t 0.03 -s 4 -d 2 -p ping -e 60000 -c 2 -i 58 -a 2 -x {4.0 5.0 -1 ------- null}
d -t 0.03 -s 4 -d 2 -p ping -e 60000 -c 2 -i 58 -a 2 -x {4.0 5.0 -1 ------- null}
+ -t 0.03 -s 1 -d 2 -p ping -e 60000 -c 2 -i 59 -a 2 -x {1.0 5.0 -1 ------- null}
d -t 0.03 -s 1 -d 2 -p ping -e 60000 -c 2 -i 59 -a 2 -x {1.0 5.0 -1 ------- null}
+ -t 0.031 -s 0 -d 2 -p ping -e 50000 -c 1 -i 60 -a 1 -x {0.0 3.0 -1 ------- null}
d -t 0.031 -s 0 -d 2 -p ping -e 50000 -c 1 -i 60 -a 1 -x {0.0 3.0 -1 ------- null}
+ -t 0.031 -s 4 -d 2 -p ping -e 60000 -c 2 -i 61 -a 2 -x {4.0 5.0 -1 ------- null}
d -t 0.031 -s 4 -d 2 -p ping -e 60000 -c 2 -i 61 -a 2 -x {4.0 5.0 -1 ------- null}
+ -t 0.031 -s 1 -d 2 -p ping -e 60000 -c 2 -i 62 -a 2 -x {1.0 5.0 -1 ------- null}
d -t 0.031 -s 1 -d 2 -p ping -e 60000 -c 2 -i 62 -a 2 -x {1.0 5.0 -1 ------- null}
+ -t 0.032 -s 0 -d 2 -p ping -e 50000 -c 1 -i 63 -a 1 -x {0.0 3.0 -1 ------- null}
d -t 0.032 -s 0 -d 2 -p ping -e 50000 -c 1 -i 63 -a 1 -x {0.0 3.0 -1 ------- null}
+ -t 0.032 -s 4 -d 2 -p ping -e 60000 -c 2 -i 64 -a 2 -x {4.0 5.0 -1 ------- null}
d -t 0.032 -s 4 -d 2 -p ping -e 60000 -c 2 -i 64 -a 2 -x {4.0 5.0 -1 ------- null}
+ -t 0.032 -s 1 -d 2 -p ping -e 60000 -c 2 -i 65 -a 2 -x {1.0 5.0 -1 ------- null}
d -t 0.032 -s 1 -d 2 -p ping -e 60000 -c 2 -i 65 -a 2 -x {1.0 5.0 -1 ------- null}
+ -t 0.033 -s 0 -d 2 -p ping -e 50000 -c 1 -i 66 -a 1 -x {0.0 3.0 -1 ------- null}
d -t 0.033 -s 0 -d 2 -p ping -e 50000 -c 1 -i 66 -a 1 -x {0.0 3.0 -1 ------- null}
+ -t 0.033 -s 4 -d 2 -p ping -e 60000 -c 2 -i 67 -a 2 -x {4.0 5.0 -1 ------- null}
d -t 0.033 -s 4 -d 2 -p ping -e 60000 -c 2 -i 67 -a 2 -x {4.0 5.0 -1 ------- null}
+ -t 0.033 -s 1 -d 2 -p ping -e 60000 -c 2 -i 68 -a 2 -x {1.0 5.0 -1 ------- null}
d -t 0.033 -s 1 -d 2 -p ping -e 60000 -c 2 -i 68 -a 2 -x {1.0 5.0 -1 ------- null}
+ -t 0.034 -s 0 -d 2 -p ping -e 50000 -c 1 -i 69 -a 1 -x {0.0 3.0 -1 ------- null}
d -t 0.034 -s 0 -d 2 -p ping -e 50000 -c 1 -i 69 -a 1 -x {0.0 3.0 -1 ------- null}
+ -t 0.034 -s 4 -d 2 -p ping -e 60000 -c 2 -i 70 -a 2 -x {4.0 5.0 -1 ------- null}
d -t 0.034 -s 4 -d 2 -p ping -e 60000 -c 2 -i 70 -a 2 -x {4.0 5.0 -1 ------- null}
+ -t 0.034 -s 1 -d 2 -p ping -e 60000 -c 2 -i 71 -a 2 -x {1.0 5.0 -1 ------- null}
d -t 0.034 -s 1 -d 2 -p ping -e 60000 -c 2 -i 71 -a 2 -x {1.0 5.0 -1 ------- null}
+ -t 0.035 -s 0 -d 2 -p ping -e 50000 -c 1 -i 72 -a 1 -x {0.0 3.0 -1 ------- null}
d -t 0.035 -s 0 -d 2 -p ping -e 50000 -c 1 -i 72 -a 1 -x {0.0 3.0 -1 ------- null}
+ -t 0.035 -s 4 -d 2 -p ping -e 60000 -c 2 -i 73 -a 2 -x {4.0 5.0 -1 ------- null}
d -t 0.035 -s 4 -d 2 -p ping -e 60000 -c 2 -i 73 -a 2 -x {4.0 5.0 -1 ------- null}
+ -t 0.035 -s 1 -d 2 -p ping -e 60000 -c 2 -i 74 -a 2 -x {1.0 5.0 -1 ------- null}
d -t 0.035 -s 1 -d 2 -p ping -e 60000 -c 2 -i 74 -a 2 -x {1.0 5.0 -1 ------- null}
+ -t 0.036 -s 0 -d 2 -p ping -e 50000 -c 1 -i 75 -a 1 -x {0.0 3.0 -1 ------- null}
d -t 0.036 -s 0 -d 2 -p ping -e 50000 -c 1 -i 75 -a 1 -x {0.0 3.0 -1 ------- null}
+ -t 0.036 -s 4 -d 2 -p ping -e 60000 -c 2 -i 76 -a 2 -x {4.0 5.0 -1 ------- null}
d -t 0.036 -s 4 -d 2 -p ping -e 60000 -c 2 -i 76 -a 2 -x {4.0 5.0 -1 ------- null}
+ -t 0.036 -s 1 -d 2 -p ping -e 60000 -c 2 -i 77 -a 2 -x {1.0 5.0 -1 ------- null}
d -t 0.036 -s 1 -d 2 -p ping -e 60000 -c 2 -i 77 -a 2 -x {1.0 5.0 -1 ------- null}
+ -t 0.037 -s 0 -d 2 -p ping -e 50000 -c 1 -i 78 -a 1 -x {0.0 3.0 -1 ------- null}
d -t 0.037 -s 0 -d 2 -p ping -e 50000 -c 1 -i 78 -a 1 -x {0.0 3.0 -1 ------- null}
+ -t 0.037 -s 4 -d 2 -p ping -e 60000 -c 2 -i 79 -a 2 -x {4.0 5.0 -1 ------- null}
d -t 0.037 -s 4 -d 2 -p ping -e 60000 -c 2 -i 79 -a 2 -x {4.0 5.0 -1 ------- null}
+ -t 0.037 -s 1 -d 2 -p ping -e 60000 -c 2 -i 80 -a 2 -x {1.0 5.0 -1 ------- null}
d -t 0.037 -s 1 -d 2 -p ping -e 60000 -c 2 -i 80 -a 2 -x {1.0 5.0 -1 ------- null}
+ -t 0.038 -s 0 -d 2 -p ping -e 50000 -c 1 -i 81 -a 1 -x {0.0 3.0 -1 ------- null}
d -t 0.038 -s 0 -d 2 -p ping -e 50000 -c 1 -i 81 -a 1 -x {0.0 3.0 -1 ------- null}
+ -t 0.038 -s 4 -d 2 -p ping -e 60000 -c 2 -i 82 -a 2 -x {4.0 5.0 -1 ------- null}
d -t 0.038 -s 4 -d 2 -p ping -e 60000 -c 2 -i 82 -a 2 -x {4.0 5.0 -1 ------- null}
+ -t 0.038 -s 1 -d 2 -p ping -e 60000 -c 2 -i 83 -a 2 -x {1.0 5.0 -1 ------- null}
d -t 0.038 -s 1 -d 2 -p ping -e 60000 -c 2 -i 83 -a 2 -x {1.0 5.0 -1 ------- null}
+ -t 0.039 -s 0 -d 2 -p ping -e 50000 -c 1 -i 84 -a 1 -x {0.0 3.0 -1 ------- null}
d -t 0.039 -s 0 -d 2 -p ping -e 50000 -c 1 -i 84 -a 1 -x {0.0 3.0 -1 ------- null}
+ -t 0.039 -s 4 -d 2 -p ping -e 60000 -c 2 -i 85 -a 2 -x {4.0 5.0 -1 ------- null}
d -t 0.039 -s 4 -d 2 -p ping -e 60000 -c 2 -i 85 -a 2 -x {4.0 5.0 -1 ------- null}
+ -t 0.039 -s 1 -d 2 -p ping -e 60000 -c 2 -i 86 -a 2 -x {1.0 5.0 -1 ------- null}
d -t 0.039 -s 1 -d 2 -p ping -e 60000 -c 2 -i 86 -a 2 -x {1.0 5.0 -1 ------- null}
+ -t 0.04 -s 0 -d 2 -p ping -e 50000 -c 1 -i 87 -a 1 -x {0.0 3.0 -1 ------- null}
d -t 0.04 -s 0 -d 2 -p ping -e 50000 -c 1 -i 87 -a 1 -x {0.0 3.0 -1 ------- null}
+ -t 0.04 -s 4 -d 2 -p ping -e 60000 -c 2 -i 88 -a 2 -x {4.0 5.0 -1 ------- null}
d -t 0.04 -s 4 -d 2 -p ping -e 60000 -c 2 -i 88 -a 2 -x {4.0 5.0 -1 ------- null}
+ -t 0.04 -s 1 -d 2 -p ping -e 60000 -c 2 -i 89 -a 2 -x {1.0 5.0 -1 ------- null}
d -t 0.04 -s 1 -d 2 -p ping -e 60000 -c 2 -i 89 -a 2 -x {1.0 5.0 -1 ------- null}
+ -t 0.041 -s 0 -d 2 -p ping -e 50000 -c 1 -i 90 -a 1 -x {0.0 3.0 -1 ------- null}
d -t 0.041 -s 0 -d 2 -p ping -e 50000 -c 1 -i 90 -a 1 -x {0.0 3.0 -1 ------- null}
+ -t 0.041 -s 4 -d 2 -p ping -e 60000 -c 2 -i 91 -a 2 -x {4.0 5.0 -1 ------- null}
d -t 0.041 -s 4 -d 2 -p ping -e 60000 -c 2 -i 91 -a 2 -x {4.0 5.0 -1 ------- null}
+ -t 0.041 -s 1 -d 2 -p ping -e 60000 -c 2 -i 92 -a 2 -x {1.0 5.0 -1 ------- null}
d -t 0.041 -s 1 -d 2 -p ping -e 60000 -c 2 -i 92 -a 2 -x {1.0 5.0 -1 ------- null}
+ -t 0.042 -s 0 -d 2 -p ping -e 50000 -c 1 -i 93 -a 1 -x {0.0 3.0 -1 ------- null}
d -t 0.042 -s 0 -d 2 -p ping -e 50000 -c 1 -i 93 -a 1 -x {0.0 3.0 -1 ------- null}
+ -t 0.042 -s 4 -d 2 -p ping -e 60000 -c 2 -i 94 -a 2 -x {4.0 5.0 -1 ------- null}
d -t 0.042 -s 4 -d 2 -p ping -e 60000 -c 2 -i 94 -a 2 -x {4.0 5.0 -1 ------- null}
+ -t 0.042 -s 1 -d 2 -p ping -e 60000 -c 2 -i 95 -a 2 -x {1.0 5.0 -1 ------- null}
d -t 0.042 -s 1 -d 2 -p ping -e 60000 -c 2 -i 95 -a 2 -x {1.0 5.0 -1 ------- null}
+ -t 0.043 -s 0 -d 2 -p ping -e 50000 -c 1 -i 96 -a 1 -x {0.0 3.0 -1 ------- null}
d -t 0.043 -s 0 -d 2 -p ping -e 50000 -c 1 -i 96 -a 1 -x {0.0 3.0 -1 ------- null}
+ -t 0.043 -s 4 -d 2 -p ping -e 60000 -c 2 -i 97 -a 2 -x {4.0 5.0 -1 ------- null}
d -t 0.043 -s 4 -d 2 -p ping -e 60000 -c 2 -i 97 -a 2 -x {4.0 5.0 -1 ------- null}
+ -t 0.043 -s 1 -d 2 -p ping -e 60000 -c 2 -i 98 -a 2 -x {1.0 5.0 -1 ------- null}
d -t 0.043 -s 1 -d 2 -p ping -e 60000 -c 2 -i 98 -a 2 -x {1.0 5.0 -1 ------- null}
+ -t 0.044 -s 0 -d 2 -p ping -e 50000 -c 1 -i 99 -a 1 -x {0.0 3.0 -1 ------- null}
d -t 0.044 -s 0 -d 2 -p ping -e 50000 -c 1 -i 99 -a 1 -x {0.0 3.0 -1 ------- null}
+ -t 0.044 -s 4 -d 2 -p ping -e 60000 -c 2 -i 100 -a 2 -x {4.0 5.0 -1 ------- null}
d -t 0.044 -s 4 -d 2 -p ping -e 60000 -c 2 -i 100 -a 2 -x {4.0 5.0 -1 ------- null}
+ -t 0.044 -s 1 -d 2 -p ping -e 60000 -c 2 -i 101 -a 2 -x {1.0 5.0 -1 ------- null}
d -t 0.044 -s 1 -d 2 -p ping -e 60000 -c 2 -i 101 -a 2 -x {1.0 5.0 -1 ------- null}
+ -t 0.045 -s 0 -d 2 -p ping -e 50000 -c 1 -i 102 -a 1 -x {0.0 3.0 -1 ------- null}
d -t 0.045 -s 0 -d 2 -p ping -e 50000 -c 1 -i 102 -a 1 -x {0.0 3.0 -1 ------- null}
+ -t 0.045 -s 4 -d 2 -p ping -e 60000 -c 2 -i 103 -a 2 -x {4.0 5.0 -1 ------- null}
d -t 0.045 -s 4 -d 2 -p ping -e 60000 -c 2 -i 103 -a 2 -x {4.0 5.0 -1 ------- null}
+ -t 0.045 -s 1 -d 2 -p ping -e 60000 -c 2 -i 104 -a 2 -x {1.0 5.0 -1 ------- null}
d -t 0.045 -s 1 -d 2 -p ping -e 60000 -c 2 -i 104 -a 2 -x {1.0 5.0 -1 ------- null}
+ -t 0.046 -s 0 -d 2 -p ping -e 50000 -c 1 -i 105 -a 1 -x {0.0 3.0 -1 ------- null}
d -t 0.046 -s 0 -d 2 -p ping -e 50000 -c 1 -i 105 -a 1 -x {0.0 3.0 -1 ------- null}
+ -t 0.046 -s 4 -d 2 -p ping -e 60000 -c 2 -i 106 -a 2 -x {4.0 5.0 -1 ------- null}
d -t 0.046 -s 4 -d 2 -p ping -e 60000 -c 2 -i 106 -a 2 -x {4.0 5.0 -1 ------- null}
+ -t 0.046 -s 1 -d 2 -p ping -e 60000 -c 2 -i 107 -a 2 -x {1.0 5.0 -1 ------- null}
d -t 0.046 -s 1 -d 2 -p ping -e 60000 -c 2 -i 107 -a 2 -x {1.0 5.0 -1 ------- null}
+ -t 0.047 -s 0 -d 2 -p ping -e 50000 -c 1 -i 108 -a 1 -x {0.0 3.0 -1 ------- null}
d -t 0.047 -s 0 -d 2 -p ping -e 50000 -c 1 -i 108 -a 1 -x {0.0 3.0 -1 ------- null}
+ -t 0.047 -s 4 -d 2 -p ping -e 60000 -c 2 -i 109 -a 2 -x {4.0 5.0 -1 ------- null}
d -t 0.047 -s 4 -d 2 -p ping -e 60000 -c 2 -i 109 -a 2 -x {4.0 5.0 -1 ------- null}
+ -t 0.047 -s 1 -d 2 -p ping -e 60000 -c 2 -i 110 -a 2 -x {1.0 5.0 -1 ------- null}
d -t 0.047 -s 1 -d 2 -p ping -e 60000 -c 2 -i 110 -a 2 -x {1.0 5.0 -1 ------- null}
+ -t 0.048 -s 0 -d 2 -p ping -e 50000 -c 1 -i 111 -a 1 -x {0.0 3.0 -1 ------- null}
d -t 0.048 -s 0 -d 2 -p ping -e 50000 -c 1 -i 111 -a 1 -x {0.0 3.0 -1 ------- null}
+ -t 0.048 -s 4 -d 2 -p ping -e 60000 -c 2 -i 112 -a 2 -x {4.0 5.0 -1 ------- null}
d -t 0.048 -s 4 -d 2 -p ping -e 60000 -c 2 -i 112 -a 2 -x {4.0 5.0 -1 ------- null}
+ -t 0.048 -s 1 -d 2 -p ping -e 60000 -c 2 -i 113 -a 2 -x {1.0 5.0 -1 ------- null}
d -t 0.048 -s 1 -d 2 -p ping -e 60000 -c 2 -i 113 -a 2 -x {1.0 5.0 -1 ------- null}
+ -t 0.049 -s 0 -d 2 -p ping -e 50000 -c 1 -i 114 -a 1 -x {0.0 3.0 -1 ------- null}
d -t 0.049 -s 0 -d 2 -p ping -e 50000 -c 1 -i 114 -a 1 -x {0.0 3.0 -1 ------- null}
+ -t 0.049 -s 4 -d 2 -p ping -e 60000 -c 2 -i 115 -a 2 -x {4.0 5.0 -1 ------- null}
d -t 0.049 -s 4 -d 2 -p ping -e 60000 -c 2 -i 115 -a 2 -x {4.0 5.0 -1 ------- null}
+ -t 0.049 -s 1 -d 2 -p ping -e 60000 -c 2 -i 116 -a 2 -x {1.0 5.0 -1 ------- null}
d -t 0.049 -s 1 -d 2 -p ping -e 60000 -c 2 -i 116 -a 2 -x {1.0 5.0 -1 ------- null}
+ -t 0.05 -s 0 -d 2 -p ping -e 50000 -c 1 -i 117 -a 1 -x {0.0 3.0 -1 ------- null}
d -t 0.05 -s 0 -d 2 -p ping -e 50000 -c 1 -i 117 -a 1 -x {0.0 3.0 -1 ------- null}
+ -t 0.05 -s 4 -d 2 -p ping -e 60000 -c 2 -i 118 -a 2 -x {4.0 5.0 -1 ------- null}
d -t 0.05 -s 4 -d 2 -p ping -e 60000 -c 2 -i 118 -a 2 -x {4.0 5.0 -1 ------- null}
+ -t 0.05 -s 1 -d 2 -p ping -e 60000 -c 2 -i 119 -a 2 -x {1.0 5.0 -1 ------- null}
d -t 0.05 -s 1 -d 2 -p ping -e 60000 -c 2 -i 119 -a 2 -x {1.0 5.0 -1 ------- null}
- -t 0.051 -s 0 -d 2 -p ping -e 50000 -c 1 -i 3 -a 1 -x {0.0 3.0 -1 ------- null}
h -t 0.051 -s 0 -d 2 -p ping -e 50000 -c 1 -i 3 -a 1 -x {0.0 3.0 -1 ------- null}
+ -t 0.051 -s 0 -d 2 -p ping -e 50000 -c 1 -i 120 -a 1 -x {0.0 3.0 -1 ------- null}
+ -t 0.051 -s 4 -d 2 -p ping -e 60000 -c 2 -i 121 -a 2 -x {4.0 5.0 -1 ------- null}
d -t 0.051 -s 4 -d 2 -p ping -e 60000 -c 2 -i 121 -a 2 -x {4.0 5.0 -1 ------- null}
+ -t 0.051 -s 1 -d 2 -p ping -e 60000 -c 2 -i 122 -a 2 -x {1.0 5.0 -1 ------- null}
d -t 0.051 -s 1 -d 2 -p ping -e 60000 -c 2 -i 122 -a 2 -x {1.0 5.0 -1 ------- null}
+ -t 0.052 -s 0 -d 2 -p ping -e 50000 -c 1 -i 123 -a 1 -x {0.0 3.0 -1 ------- null}
d -t 0.052 -s 0 -d 2 -p ping -e 50000 -c 1 -i 123 -a 1 -x {0.0 3.0 -1 ------- null}
+ -t 0.052 -s 4 -d 2 -p ping -e 60000 -c 2 -i 124 -a 2 -x {4.0 5.0 -1 ------- null}
d -t 0.052 -s 4 -d 2 -p ping -e 60000 -c 2 -i 124 -a 2 -x {4.0 5.0 -1 ------- null}
+ -t 0.052 -s 1 -d 2 -p ping -e 60000 -c 2 -i 125 -a 2 -x {1.0 5.0 -1 ------- null}
d -t 0.052 -s 1 -d 2 -p ping -e 60000 -c 2 -i 125 -a 2 -x {1.0 5.0 -1 ------- null}
+ -t 0.053 -s 0 -d 2 -p ping -e 50000 -c 1 -i 126 -a 1 -x {0.0 3.0 -1 ------- null}
d -t 0.053 -s 0 -d 2 -p ping -e 50000 -c 1 -i 126 -a 1 -x {0.0 3.0 -1 ------- null}
+ -t 0.053 -s 4 -d 2 -p ping -e 60000 -c 2 -i 127 -a 2 -x {4.0 5.0 -1 ------- null}
d -t 0.053 -s 4 -d 2 -p ping -e 60000 -c 2 -i 127 -a 2 -x {4.0 5.0 -1 ------- null}
+ -t 0.053 -s 1 -d 2 -p ping -e 60000 -c 2 -i 128 -a 2 -x {1.0 5.0 -1 ------- null}
d -t 0.053 -s 1 -d 2 -p ping -e 60000 -c 2 -i 128 -a 2 -x {1.0 5.0 -1 ------- null}
+ -t 0.054 -s 0 -d 2 -p ping -e 50000 -c 1 -i 129 -a 1 -x {0.0 3.0 -1 ------- null}
d -t 0.054 -s 0 -d 2 -p ping -e 50000 -c 1 -i 129 -a 1 -x {0.0 3.0 -1 ------- null}
+ -t 0.054 -s 4 -d 2 -p ping -e 60000 -c 2 -i 130 -a 2 -x {4.0 5.0 -1 ------- null}
d -t 0.054 -s 4 -d 2 -p ping -e 60000 -c 2 -i 130 -a 2 -x {4.0 5.0 -1 ------- null}
+ -t 0.054 -s 1 -d 2 -p ping -e 60000 -c 2 -i 131 -a 2 -x {1.0 5.0 -1 ------- null}
d -t 0.054 -s 1 -d 2 -p ping -e 60000 -c 2 -i 131 -a 2 -x {1.0 5.0 -1 ------- null}
+ -t 0.055 -s 0 -d 2 -p ping -e 50000 -c 1 -i 132 -a 1 -x {0.0 3.0 -1 ------- null}
d -t 0.055 -s 0 -d 2 -p ping -e 50000 -c 1 -i 132 -a 1 -x {0.0 3.0 -1 ------- null}
+ -t 0.055 -s 4 -d 2 -p ping -e 60000 -c 2 -i 133 -a 2 -x {4.0 5.0 -1 ------- null}
d -t 0.055 -s 4 -d 2 -p ping -e 60000 -c 2 -i 133 -a 2 -x {4.0 5.0 -1 ------- null}
+ -t 0.055 -s 1 -d 2 -p ping -e 60000 -c 2 -i 134 -a 2 -x {1.0 5.0 -1 ------- null}
d -t 0.055 -s 1 -d 2 -p ping -e 60000 -c 2 -i 134 -a 2 -x {1.0 5.0 -1 ------- null}
+ -t 0.056 -s 0 -d 2 -p ping -e 50000 -c 1 -i 135 -a 1 -x {0.0 3.0 -1 ------- null}
d -t 0.056 -s 0 -d 2 -p ping -e 50000 -c 1 -i 135 -a 1 -x {0.0 3.0 -1 ------- null}
+ -t 0.056 -s 4 -d 2 -p ping -e 60000 -c 2 -i 136 -a 2 -x {4.0 5.0 -1 ------- null}
d -t 0.056 -s 4 -d 2 -p ping -e 60000 -c 2 -i 136 -a 2 -x {4.0 5.0 -1 ------- null}
+ -t 0.056 -s 1 -d 2 -p ping -e 60000 -c 2 -i 137 -a 2 -x {1.0 5.0 -1 ------- null}
d -t 0.056 -s 1 -d 2 -p ping -e 60000 -c 2 -i 137 -a 2 -x {1.0 5.0 -1 ------- null}
+ -t 0.057 -s 0 -d 2 -p ping -e 50000 -c 1 -i 138 -a 1 -x {0.0 3.0 -1 ------- null}
d -t 0.057 -s 0 -d 2 -p ping -e 50000 -c 1 -i 138 -a 1 -x {0.0 3.0 -1 ------- null}
+ -t 0.057 -s 4 -d 2 -p ping -e 60000 -c 2 -i 139 -a 2 -x {4.0 5.0 -1 ------- null}
d -t 0.057 -s 4 -d 2 -p ping -e 60000 -c 2 -i 139 -a 2 -x {4.0 5.0 -1 ------- null}
+ -t 0.057 -s 1 -d 2 -p ping -e 60000 -c 2 -i 140 -a 2 -x {1.0 5.0 -1 ------- null}
d -t 0.057 -s 1 -d 2 -p ping -e 60000 -c 2 -i 140 -a 2 -x {1.0 5.0 -1 ------- null}
+ -t 0.058 -s 0 -d 2 -p ping -e 50000 -c 1 -i 141 -a 1 -x {0.0 3.0 -1 ------- null}
d -t 0.058 -s 0 -d 2 -p ping -e 50000 -c 1 -i 141 -a 1 -x {0.0 3.0 -1 ------- null}
+ -t 0.058 -s 4 -d 2 -p ping -e 60000 -c 2 -i 142 -a 2 -x {4.0 5.0 -1 ------- null}
d -t 0.058 -s 4 -d 2 -p ping -e 60000 -c 2 -i 142 -a 2 -x {4.0 5.0 -1 ------- null}
+ -t 0.058 -s 1 -d 2 -p ping -e 60000 -c 2 -i 143 -a 2 -x {1.0 5.0 -1 ------- null}
d -t 0.058 -s 1 -d 2 -p ping -e 60000 -c 2 -i 143 -a 2 -x {1.0 5.0 -1 ------- null}
- -t 0.059 -s 4 -d 2 -p ping -e 60000 -c 2 -i 4 -a 2 -x {4.0 5.0 -1 ------- null}
h -t 0.059 -s 4 -d 2 -p ping -e 60000 -c 2 -i 4 -a 2 -x {4.0 5.0 -1 ------- null}
+ -t 0.059 -s 0 -d 2 -p ping -e 50000 -c 1 -i 144 -a 1 -x {0.0 3.0 -1 ------- null}
d -t 0.059 -s 0 -d 2 -p ping -e 50000 -c 1 -i 144 -a 1 -x {0.0 3.0 -1 ------- null}
+ -t 0.059 -s 4 -d 2 -p ping -e 60000 -c 2 -i 145 -a 2 -x {4.0 5.0 -1 ------- null}
+ -t 0.059 -s 1 -d 2 -p ping -e 60000 -c 2 -i 146 -a 2 -x {1.0 5.0 -1 ------- null}
d -t 0.059 -s 1 -d 2 -p ping -e 60000 -c 2 -i 146 -a 2 -x {1.0 5.0 -1 ------- null}
+ -t 0.06 -s 0 -d 2 -p ping -e 50000 -c 1 -i 147 -a 1 -x {0.0 3.0 -1 ------- null}
d -t 0.06 -s 0 -d 2 -p ping -e 50000 -c 1 -i 147 -a 1 -x {0.0 3.0 -1 ------- null}
+ -t 0.06 -s 4 -d 2 -p ping -e 60000 -c 2 -i 148 -a 2 -x {4.0 5.0 -1 ------- null}
d -t 0.06 -s 4 -d 2 -p ping -e 60000 -c 2 -i 148 -a 2 -x {4.0 5.0 -1 ------- null}
+ -t 0.06 -s 1 -d 2 -p ping -e 60000 -c 2 -i 149 -a 2 -x {1.0 5.0 -1 ------- null}
d -t 0.06 -s 1 -d 2 -p ping -e 60000 -c 2 -i 149 -a 2 -x {1.0 5.0 -1 ------- null}
+ -t 0.061 -s 0 -d 2 -p ping -e 50000 -c 1 -i 150 -a 1 -x {0.0 3.0 -1 ------- null}
d -t 0.061 -s 0 -d 2 -p ping -e 50000 -c 1 -i 150 -a 1 -x {0.0 3.0 -1 ------- null}
+ -t 0.061 -s 4 -d 2 -p ping -e 60000 -c 2 -i 151 -a 2 -x {4.0 5.0 -1 ------- null}
d -t 0.061 -s 4 -d 2 -p ping -e 60000 -c 2 -i 151 -a 2 -x {4.0 5.0 -1 ------- null}
+ -t 0.061 -s 1 -d 2 -p ping -e 60000 -c 2 -i 152 -a 2 -x {1.0 5.0 -1 ------- null}
d -t 0.061 -s 1 -d 2 -p ping -e 60000 -c 2 -i 152 -a 2 -x {1.0 5.0 -1 ------- null}
+ -t 0.062 -s 0 -d 2 -p ping -e 50000 -c 1 -i 153 -a 1 -x {0.0 3.0 -1 ------- null}
d -t 0.062 -s 0 -d 2 -p ping -e 50000 -c 1 -i 153 -a 1 -x {0.0 3.0 -1 ------- null}
+ -t 0.062 -s 4 -d 2 -p ping -e 60000 -c 2 -i 154 -a 2 -x {4.0 5.0 -1 ------- null}
d -t 0.062 -s 4 -d 2 -p ping -e 60000 -c 2 -i 154 -a 2 -x {4.0 5.0 -1 ------- null}
+ -t 0.062 -s 1 -d 2 -p ping -e 60000 -c 2 -i 155 -a 2 -x {1.0 5.0 -1 ------- null}
d -t 0.062 -s 1 -d 2 -p ping -e 60000 -c 2 -i 155 -a 2 -x {1.0 5.0 -1 ------- null}
+ -t 0.063 -s 0 -d 2 -p ping -e 50000 -c 1 -i 156 -a 1 -x {0.0 3.0 -1 ------- null}
d -t 0.063 -s 0 -d 2 -p ping -e 50000 -c 1 -i 156 -a 1 -x {0.0 3.0 -1 ------- null}
+ -t 0.063 -s 4 -d 2 -p ping -e 60000 -c 2 -i 157 -a 2 -x {4.0 5.0 -1 ------- null}
d -t 0.063 -s 4 -d 2 -p ping -e 60000 -c 2 -i 157 -a 2 -x {4.0 5.0 -1 ------- null}
+ -t 0.063 -s 1 -d 2 -p ping -e 60000 -c 2 -i 158 -a 2 -x {1.0 5.0 -1 ------- null}
d -t 0.063 -s 1 -d 2 -p ping -e 60000 -c 2 -i 158 -a 2 -x {1.0 5.0 -1 ------- null}
+ -t 0.064 -s 0 -d 2 -p ping -e 50000 -c 1 -i 159 -a 1 -x {0.0 3.0 -1 ------- null}
d -t 0.064 -s 0 -d 2 -p ping -e 50000 -c 1 -i 159 -a 1 -x {0.0 3.0 -1 ------- null}
+ -t 0.064 -s 4 -d 2 -p ping -e 60000 -c 2 -i 160 -a 2 -x {4.0 5.0 -1 ------- null}
d -t 0.064 -s 4 -d 2 -p ping -e 60000 -c 2 -i 160 -a 2 -x {4.0 5.0 -1 ------- null}
+ -t 0.064 -s 1 -d 2 -p ping -e 60000 -c 2 -i 161 -a 2 -x {1.0 5.0 -1 ------- null}
d -t 0.064 -s 1 -d 2 -p ping -e 60000 -c 2 -i 161 -a 2 -x {1.0 5.0 -1 ------- null}
+ -t 0.065 -s 0 -d 2 -p ping -e 50000 -c 1 -i 162 -a 1 -x {0.0 3.0 -1 ------- null}
d -t 0.065 -s 0 -d 2 -p ping -e 50000 -c 1 -i 162 -a 1 -x {0.0 3.0 -1 ------- null}
+ -t 0.065 -s 4 -d 2 -p ping -e 60000 -c 2 -i 163 -a 2 -x {4.0 5.0 -1 ------- null}
d -t 0.065 -s 4 -d 2 -p ping -e 60000 -c 2 -i 163 -a 2 -x {4.0 5.0 -1 ------- null}
+ -t 0.065 -s 1 -d 2 -p ping -e 60000 -c 2 -i 164 -a 2 -x {1.0 5.0 -1 ------- null}
d -t 0.065 -s 1 -d 2 -p ping -e 60000 -c 2 -i 164 -a 2 -x {1.0 5.0 -1 ------- null}
+ -t 0.066 -s 0 -d 2 -p ping -e 50000 -c 1 -i 165 -a 1 -x {0.0 3.0 -1 ------- null}
d -t 0.066 -s 0 -d 2 -p ping -e 50000 -c 1 -i 165 -a 1 -x {0.0 3.0 -1 ------- null}
+ -t 0.066 -s 4 -d 2 -p ping -e 60000 -c 2 -i 166 -a 2 -x {4.0 5.0 -1 ------- null}
d -t 0.066 -s 4 -d 2 -p ping -e 60000 -c 2 -i 166 -a 2 -x {4.0 5.0 -1 ------- null}
+ -t 0.066 -s 1 -d 2 -p ping -e 60000 -c 2 -i 167 -a 2 -x {1.0 5.0 -1 ------- null}
d -t 0.066 -s 1 -d 2 -p ping -e 60000 -c 2 -i 167 -a 2 -x {1.0 5.0 -1 ------- null}
+ -t 0.067 -s 0 -d 2 -p ping -e 50000 -c 1 -i 168 -a 1 -x {0.0 3.0 -1 ------- null}
d -t 0.067 -s 0 -d 2 -p ping -e 50000 -c 1 -i 168 -a 1 -x {0.0 3.0 -1 ------- null}
+ -t 0.067 -s 4 -d 2 -p ping -e 60000 -c 2 -i 169 -a 2 -x {4.0 5.0 -1 ------- null}
d -t 0.067 -s 4 -d 2 -p ping -e 60000 -c 2 -i 169 -a 2 -x {4.0 5.0 -1 ------- null}
+ -t 0.067 -s 1 -d 2 -p ping -e 60000 -c 2 -i 170 -a 2 -x {1.0 5.0 -1 ------- null}
d -t 0.067 -s 1 -d 2 -p ping -e 60000 -c 2 -i 170 -a 2 -x {1.0 5.0 -1 ------- null}
+ -t 0.068 -s 0 -d 2 -p ping -e 50000 -c 1 -i 171 -a 1 -x {0.0 3.0 -1 ------- null}
d -t 0.068 -s 0 -d 2 -p ping -e 50000 -c 1 -i 171 -a 1 -x {0.0 3.0 -1 ------- null}
+ -t 0.068 -s 4 -d 2 -p ping -e 60000 -c 2 -i 172 -a 2 -x {4.0 5.0 -1 ------- null}
d -t 0.068 -s 4 -d 2 -p ping -e 60000 -c 2 -i 172 -a 2 -x {4.0 5.0 -1 ------- null}