v 0.01 eval {set sim_annotation {Network Deployment}}
M 0.10000 0 (200.80, 646.09, 0.00), (6.03, 313.37), 40.00
M 0.10000 1 (473.00, 568.15, 0.00), (460.69, 587.03), 40.00
M 0.10000 2 (92.99, 738.10, 0.00), (670.09, 118.47), 40.00
M 0.10000 3 (520.17, 372.55, 0.00), (913.17, 471.44), 40.00
M 0.10000 4 (877.46, 334.32, 0.00), (448.09, 31.29), 40.00
M 0.10000 5 (671.02, 728.89, 0.00), (323.92, 83.34), 40.00
M 0.10000 6 (119.96, 179.12, 0.00), (818.43, 315.23), 40.00
M 0.10000 7 (9.60, 215.88, 0.00), (531.98, 773.30), 40.00
M 0.10000 8 (269.43, 231.47, 0.00), (162.68, 185.31), 40.00
M 0.10000 9 (813.76, 680.53, 0.00), (80.11, 346.98), 40.00
M 0.10000 10 (16.15, 346.31, 0.00), (544.97, 197.71), 40.00
M 0.10000 11 (522.34, 710.01, 0.00), (636.81, 691.95), 40.00
M 0.10000 12 (491.35, 68.14, 0.00), (50.31, 423.92), 40.00
M 0.10000 13 (466.76, 681.93, 0.00), (83.66, 27.88), 40.00
M 0.10000 14 (492.07, 207.84, 0.00), (705.24, 726.33), 40.00
M 0.10000 15 (466.16, 552.94, 0.00), (317.71, 643.13), 40.00
M 0.10000 16 (509.44, 143.53, 0.00), (311.85, 221.07), 40.00
M 0.10000 17 (405.78, 698.20, 0.00), (420.11, 693.01), 40.00
M 0.10000 18 (353.22, 443.73, 0.00), (352.31, 173.11), 40.00
M 0.10000 19 (262.47, 202.38, 0.00), (742.97, 59.86), 40.00
M 0.10000 20 (786.86, 614.71, 0.00), (626.66, 278.72), 40.00
M 0.10000 21 (326.45, 553.04, 0.00), (514.94, 531.60), 40.00
M 0.10000 22 (640.31, 567.93, 0.00), (312.03, 278.83), 40.00
M 0.10000 23 (555.64, 501.50, 0.00), (789.62, 161.49), 40.00
M 0.10000 24 (823.41, 107.53, 0.00), (709.69, 639.06), 40.00
s 1.000000000 _4_ AGT  --- 0 cbr 1000 [0 0 0 0] [energy 100.000000 ei 0.000 es 0.000 et 0.000 er 0.000] ------- [4:0 20:0 32 0] [0] 0 0
r 1.000000000 _4_ RTR  --- 0 cbr 1000 [0 0 0 0] [energy 100.000000 ei 0.000 es 0.000 et 0.000 er 0.000] ------- [4:0 20:0 32 0] [0] 0 0
s 1.000000000 _4_ RTR  --- 0 AODV 48 [0 0 0 0] [energy 100.000000 ei 0.000 es 0.000 et 0.000 er 0.000] ------- [4:255 -1:255 30 0] [0x2 1 1 [20 0] [4 4]] (REQUEST)
N -t 1.000536 -n 24 -e 99.999746
N -t 1.000536 -n 20 -e 99.999746
N -t 1.000536 -n 3 -e 99.999746
N -t 1.000536 -n 23 -e 99.999746
N -t 1.000536 -n 22 -e 99.999746
N -t 1.000536 -n 14 -e 99.999746
N -t 1.000536 -n 9 -e 99.999746
N -t 1.000536 -n 16 -e 99.999746
N -t 1.000536 -n 5 -e 99.999746
N -t 1.000536 -n 12 -e 99.999746
N -t 1.000537 -n 1 -e 99.999746
N -t 1.000537 -n 15 -e 99.999746
N -t 1.000537 -n 11 -e 99.999746
N -t 1.000537 -n 18 -e 99.999746
N -t 1.000537 -n 13 -e 99.999746
N -t 1.000537 -n 21 -e 99.999746
r 1.001408579 _24_ RTR  --- 0 AODV 48 [0 ffffffff 4 800] [energy 99.999746 ei 0.000 es 0.000 et 0.000 er 0.000] ------- [4:255 -1:255 30 0] [0x2 1 1 [20 0] [4 4]] (REQUEST)
s 1.001550626 _24_ RTR  --- 0 AODV 48 [0 ffffffff 4 800] [energy 99.999746 ei 0.000 es 0.000 et 0.000 er 0.000] ------- [24:255 -1:255 29 0] [0x2 2 1 [20 0] [4 4]] (REQUEST)
N -t 1.001926 -n 4 -e 99.999237
N -t 1.001927 -n 14 -e 99.999491
N -t 1.001927 -n 16 -e 99.999491
N -t 1.001927 -n 3 -e 99.999491
N -t 1.001927 -n 12 -e 99.999491
N -t 1.001927 -n 23 -e 99.999491
N -t 1.001927 -n 20 -e 99.999491
N -t 1.001927 -n 22 -e 99.999491
N -t 1.001927 -n 19 -e 99.999746
N -t 1.001927 -n 9 -e 99.999491
N -t 1.001927 -n 18 -e 99.999491
r 1.002799205 _4_ RTR  --- 0 AODV 48 [0 ffffffff 18 800] [energy 99.999237 ei 0.000 es 0.000 et 0.001 er 0.000] ------- [24:255 -1:255 29 0] [0x2 2 1 [20 0] [4 4]] (REQUEST)
s 1.100000000 _4_ AGT  --- 1 cbr 1000 [0 0 0 0] [energy 99.999237 ei 0.000 es 0.000 et 0.001 er 0.000] ------- [4:0 20:0 32 0] [1] 0 0
r 1.100000000 _4_ RTR  --- 1 cbr 1000 [0 0 0 0] [energy 99.999237 ei 0.000 es 0.000 et 0.001 er 0.000] ------- [4:0 20:0 32 0] [1] 0 0
s 1.200000000 _4_ AGT  --- 2 cbr 1000 [0 0 0 0] [energy 99.999237 ei 0.000 es 0.000 et 0.001 er 0.000] ------- [4:0 20:0 32 0] [2] 0 0
r 1.200000000 _4_ RTR  --- 2 cbr 1000 [0 0 0 0] [energy 99.999237 ei 0.000 es 0.000 et 0.001 er 0.000] ------- [4:0 20:0 32 0] [2] 0 0
s 1.300000000 _4_ AGT  --- 3 cbr 1000 [0 0 0 0] [energy 99.999237 ei 0.000 es 0.000 et 0.001 er 0.000] ------- [4:0 20:0 32 0] [3] 0 0
r 1.300000000 _4_ RTR  --- 3 cbr 1000 [0 0 0 0] [energy 99.999237 ei 0.000 es 0.000 et 0.001 er 0.000] ------- [4:0 20:0 32 0] [3] 0 0
s 1.400000000 _4_ AGT  --- 4 cbr 1000 [0 0 0 0] [energy 99.999237 ei 0.000 es 0.000 et 0.001 er 0.000] ------- [4:0 20:0 32 0] [4] 0 0
r 1.400000000 _4_ RTR  --- 4 cbr 1000 [0 0 0 0] [energy 99.999237 ei 0.000 es 0.000 et 0.001 er 0.000] ------- [4:0 20:0 32 0] [4] 0 0
s 1.500000000 _4_ AGT  --- 5 cbr 1000 [0 0 0 0] [energy 99.999237 ei 0.000 es 0.000 et 0.001 er 0.000] ------- [4:0 20:0 32 0] [5] 0 0
r 1.500000000 _4_ RTR  --- 5 cbr 1000 [0 0 0 0] [energy 99.999237 ei 0.000 es 0.000 et 0.001 er 0.000] ------- [4:0 20:0 32 0] [5] 0 0
s 1.600000000 _4_ AGT  --- 6 cbr 1000 [0 0 0 0] [energy 99.999237 ei 0.000 es 0.000 et 0.001 er 0.000] ------- [4:0 20:0 32 0] [6] 0 0
r 1.600000000 _4_ RTR  --- 6 cbr 1000 [0 0 0 0] [energy 99.999237 ei 0.000 es 0.000 et 0.001 er 0.000] ------- [4:0 20:0 32 0] [6] 0 0
s 1.700000000 _4_ AGT  --- 7 cbr 1000 [0 0 0 0] [energy 99.999237 ei 0.000 es 0.000 et 0.001 er 0.000] ------- [4:0 20:0 32 0] [7] 0 0
r 1.700000000 _4_ RTR  --- 7 cbr 1000 [0 0 0 0] [energy 99.999237 ei 0.000 es 0.000 et 0.001 er 0.000] ------- [4:0 20:0 32 0] [7] 0 0
s 1.800000000 _4_ AGT  --- 8 cbr 1000 [0 0 0 0] [energy 99.999237 ei 0.000 es 0.000 et 0.001 er 0.000] ------- [4:0 20:0 32 0] [8] 0 0
r 1.800000000 _4_ RTR  --- 8 cbr 1000 [0 0 0 0] [energy 99.999237 ei 0.000 es 0.000 et 0.001 er 0.000] ------- [4:0 20:0 32 0] [8] 0 0
s 1.900000000 _4_ AGT  --- 9 cbr 1000 [0 0 0 0] [energy 99.999237 ei 0.000 es 0.000 et 0.001 er 0.000] ------- [4:0 20:0 32 0] [9] 0 0
r 1.900000000 _4_ RTR  --- 9 cbr 1000 [0 0 0 0] [energy 99.999237 ei 0.000 es 0.000 et 0.001 er 0.000] ------- [4:0 20:0 32 0] [9] 0 0
s 2.000000000 _4_ AGT  --- 10 cbr 1000 [0 0 0 0] [energy 99.999237 ei 0.000 es 0.000 et 0.001 er 0.000] ------- [4:0 20:0 32 0] [10] 0 0
r 2.000000000 _4_ RTR  --- 10 cbr 1000 [0 0 0 0] [energy 99.999237 ei 0.000 es 0.000 et 0.001 er 0.000] ------- [4:0 20:0 32 0] [10] 0 0
s 2.100000000 _4_ AGT  --- 11 cbr 1000 [0 0 0 0] [energy 99.999237 ei 0.000 es 0.000 et 0.001 er 0.000] ------- [4:0 20:0 32 0] [11] 0 0
r 2.100000000 _4_ RTR  --- 11 cbr 1000 [0 0 0 0] [energy 99.999237 ei 0.000 es 0.000 et 0.001 er 0.000] ------- [4:0 20:0 32 0] [11] 0 0
s 2.200000000 _4_ AGT  --- 12 cbr 1000 [0 0 0 0] [energy 99.999237 ei 0.000 es 0.000 et 0.001 er 0.000] ------- [4:0 20:0 32 0] [12] 0 0
r 2.200000000 _4_ RTR  --- 12 cbr 1000 [0 0 0 0] [energy 99.999237 ei 0.000 es 0.000 et 0.001 er 0.000] ------- [4:0 20:0 32 0] [12] 0 0
s 2.300000000 _4_ AGT  --- 13 cbr 1000 [0 0 0 0] [energy 99.999237 ei 0.000 es 0.000 et 0.001 er 0.000] ------- [4:0 20:0 32 0] [13] 0 0
r 2.300000000 _4_ RTR  --- 13 cbr 1000 [0 0 0 0] [energy 99.999237 ei 0.000 es 0.000 et 0.001 er 0.000] ------- [4:0 20:0 32 0] [13] 0 0
s 2.400000000 _4_ AGT  --- 14 cbr 1000 [0 0 0 0] [energy 99.999237 ei 0.000 es 0.000 et 0.001 er 0.000] ------- [4:0 20:0 32 0] [14] 0 0
r 2.400000000 _4_ RTR  --- 14 cbr 1000 [0 0 0 0] [energy 99.999237 ei 0.000 es 0.000 et 0.001 er 0.000] ------- [4:0 20:0 32 0] [14] 0 0
s 2.500000000 _4_ AGT  --- 15 cbr 1000 [0 0 0 0] [energy 99.999237 ei 0.000 es 0.000 et 0.001 er 0.000] ------- [4:0 20:0 32 0] [15] 0 0
r 2.500000000 _4_ RTR  --- 15 cbr 1000 [0 0 0 0] [energy 99.999237 ei 0.000 es 0.000 et 0.001 er 0.000] ------- [4:0 20:0 32 0] [15] 0 0
s 2.600000000 _4_ AGT  --- 16 cbr 1000 [0 0 0 0] [energy 99.999237 ei 0.000 es 0.000 et 0.001 er 0.000] ------- [4:0 20:0 32 0] [16] 0 0
r 2.600000000 _4_ RTR  --- 16 cbr 1000 [0 0 0 0] [energy 99.999237 ei 0.000 es 0.000 et 0.001 er 0.000] ------- [4:0 20:0 32 0] [16] 0 0
s 2.700000000 _4_ AGT  --- 17 cbr 1000 [0 0 0 0] [energy 99.999237 ei 0.000 es 0.000 et 0.001 er 0.000] ------- [4:0 20:0 32 0] [17] 0 0
r 2.700000000 _4_ RTR  --- 17 cbr 1000 [0 0 0 0] [energy 99.999237 ei 0.000 es 0.000 et 0.001 er 0.000] ------- [4:0 20:0 32 0] [17] 0 0
s 2.800000000 _4_ AGT  --- 18 cbr 1000 [0 0 0 0] [energy 99.999237 ei 0.000 es 0.000 et 0.001 er 0.000] ------- [4:0 20:0 32 0] [18] 0 0
r 2.800000000 _4_ RTR  --- 18 cbr 1000 [0 0 0 0] [energy 99.999237 ei 0.000 es 0.000 et 0.001 er 0.000] ------- [4:0 20:0 32 0] [18] 0 0
s 2.800000000 _4_ RTR  --- 0 AODV 48 [0 0 0 0] [energy 99.999237 ei 0.000 es 0.000 et 0.001 er 0.000] ------- [4:255 -1:255 30 0] [0x2 1 2 [20 0] [4 6]] (REQUEST)
N -t 2.800075 -n 24 -e 99.998982
N -t 2.800076 -n 3 -e 99.999237
N -t 2.800076 -n 23 -e 99.999237
N -t 2.800076 -n 20 -e 99.999237
N -t 2.800076 -n 14 -e 99.999237
N -t 2.800076 -n 22 -e 99.999237
N -t 2.800076 -n 9 -e 99.999237
N -t 2.800076 -n 16 -e 99.999237
N -t 2.800076 -n 5 -e 99.999491
N -t 2.800076 -n 12 -e 99.999237
N -t 2.800076 -n 19 -e 99.999491
N -t 2.800076 -n 18 -e 99.999237
N -t 2.800076 -n 21 -e 99.999491
N -t 2.800077 -n 11 -e 99.999491
N -t 2.800077 -n 1 -e 99.999491
N -t 2.800077 -n 13 -e 99.999491
N -t 2.800077 -n 15 -e 99.999491
r 2.800948200 _24_ RTR  --- 0 AODV 48 [0 ffffffff 4 800] [energy 99.998982 ei 0.000 es 0.000 et 0.001 er 0.001] ------- [4:255 -1:255 30 0] [0x2 1 2 [20 0] [4 6]] (REQUEST)
r 2.800948692 _3_ RTR  --- 0 AODV 48 [0 ffffffff 4 800] [energy 99.999237 ei 0.000 es 0.000 et 0.000 er 0.001] ------- [4:255 -1:255 30 0] [0x2 1 2 [20 0] [4 6]] (REQUEST)
r 2.800948741 _23_ RTR  --- 0 AODV 48 [0 ffffffff 4 800] [energy 99.999237 ei 0.000 es 0.000 et 0.000 er 0.001] ------- [4:255 -1:255 30 0] [0x2 1 2 [20 0] [4 6]] (REQUEST)
r 2.800948833 _20_ RTR  --- 0 AODV 48 [0 ffffffff 4 800] [energy 99.999237 ei 0.000 es 0.000 et 0.000 er 0.001] ------- [4:255 -1:255 30 0] [0x2 1 2 [20 0] [4 6]] (REQUEST)
s 2.800948833 _20_ RTR  --- 0 AODV 44 [0 0 0 0] [energy 99.999237 ei 0.000 es 0.000 et 0.000 er 0.001] ------- [20:255 4:255 30 4] [0x4 1 [20 4] 10.000000] (REPLY)
N -t 2.801264 -n 9 -e 99.999030
N -t 2.801264 -n 23 -e 99.999030
N -t 2.801264 -n 3 -e 99.999030
N -t 2.801264 -n 5 -e 99.999285
N -t 2.801264 -n 22 -e 99.999030
N -t 2.801265 -n 11 -e 99.999285
N -t 2.801265 -n 4 -e 99.998522
N -t 2.801265 -n 1 -e 99.999285
N -t 2.801265 -n 14 -e 99.999030
N -t 2.801265 -n 21 -e 99.999285
N -t 2.801265 -n 24 -e 99.998776
N -t 2.801265 -n 13 -e 99.999285
N -t 2.801265 -n 17 -e 99.999794
N -t 2.801265 -n 15 -e 99.999285
N -t 2.801265 -n 18 -e 99.999030
N -t 2.801265 -n 16 -e 99.999030
N -t 2.801266 -n 12 -e 99.999030
N -t 2.801266 -n 19 -e 99.999285
N -t 2.802048 -n 24 -e 99.998670
N -t 2.802048 -n 3 -e 99.998925
N -t 2.802048 -n 23 -e 99.998925
N -t 2.802048 -n 20 -e 99.998718
N -t 2.802049 -n 14 -e 99.998925
N -t 2.802049 -n 22 -e 99.998925
N -t 2.802049 -n 9 -e 99.998925
N -t 2.802049 -n 16 -e 99.998925
N -t 2.802049 -n 5 -e 99.999179
N -t 2.802049 -n 12 -e 99.998925
N -t 2.802049 -n 19 -e 99.999179
N -t 2.802049 -n 18 -e 99.998925
N -t 2.802049 -n 21 -e 99.999179
N -t 2.802049 -n 11 -e 99.999179
N -t 2.802049 -n 1 -e 99.999179
N -t 2.802049 -n 13 -e 99.999179
N -t 2.802049 -n 15 -e 99.999179
N -t 2.802411 -n 9 -e 99.998834
N -t 2.802411 -n 23 -e 99.998834
N -t 2.802411 -n 3 -e 99.998834
N -t 2.802411 -n 5 -e 99.999088
N -t 2.802411 -n 22 -e 99.998834
N -t 2.802411 -n 11 -e 99.999088
N -t 2.802411 -n 4 -e 99.998219
N -t 2.802411 -n 1 -e 99.999088
N -t 2.802411 -n 14 -e 99.998834
N -t 2.802412 -n 21 -e 99.999088
N -t 2.802412 -n 24 -e 99.998579
N -t 2.802412 -n 13 -e 99.999088
N -t 2.802412 -n 17 -e 99.999702
N -t 2.802412 -n 15 -e 99.999088
N -t 2.802412 -n 18 -e 99.998834
N -t 2.802412 -n 16 -e 99.998834
N -t 2.802412 -n 12 -e 99.998834
N -t 2.802412 -n 19 -e 99.999088
N -t 2.802726 -n 24 -e 99.998373
N -t 2.802726 -n 3 -e 99.998627
N -t 2.802726 -n 23 -e 99.998627
N -t 2.802726 -n 20 -e 99.998330
N -t 2.802726 -n 14 -e 99.998627
N -t 2.802726 -n 22 -e 99.998627
N -t 2.802727 -n 9 -e 99.998627
N -t 2.802727 -n 16 -e 99.998627
N -t 2.802727 -n 5 -e 99.998882
N -t 2.802727 -n 12 -e 99.998627
N -t 2.802727 -n 19 -e 99.998882
N -t 2.802727 -n 18 -e 99.998627
N -t 2.802727 -n 21 -e 99.998882
N -t 2.802727 -n 11 -e 99.998882
N -t 2.802727 -n 1 -e 99.998882
N -t 2.802727 -n 13 -e 99.998882
N -t 2.802727 -n 15 -e 99.998882
s 2.803294709 _3_ RTR  --- 0 AODV 48 [0 ffffffff 4 800] [energy 99.998627 ei 0.000 es 0.000 et 0.000 er 0.001] ------- [3:255 -1:255 29 0] [0x2 2 2 [20 0] [4 6]] (REQUEST)
N -t 2.803425 -n 9 -e 99.998536
N -t 2.803425 -n 23 -e 99.998536
N -t 2.803425 -n 3 -e 99.998536
N -t 2.803425 -n 5 -e 99.998790
N -t 2.803425 -n 22 -e 99.998536
N -t 2.803425 -n 11 -e 99.998790
N -t 2.803425 -n 4 -e 99.997715
N -t 2.803425 -n 1 -e 99.998790
N -t 2.803425 -n 14 -e 99.998536
N -t 2.803425 -n 21 -e 99.998790
N -t 2.803425 -n 24 -e 99.998282
N -t 2.803425 -n 13 -e 99.998790
N -t 2.803425 -n 17 -e 99.999611
N -t 2.803425 -n 15 -e 99.998790
N -t 2.803426 -n 18 -e 99.998536
N -t 2.803426 -n 16 -e 99.998536
N -t 2.803426 -n 12 -e 99.998536
N -t 2.803426 -n 19 -e 99.998790
N -t 2.803979 -n 9 -e 99.998430
N -t 2.803979 -n 23 -e 99.998430
N -t 2.803979 -n 3 -e 99.998430
N -t 2.803979 -n 5 -e 99.998685
N -t 2.803979 -n 22 -e 99.998430
N -t 2.803979 -n 11 -e 99.998685
N -t 2.803979 -n 4 -e 99.997610
N -t 2.803979 -n 1 -e 99.998685
N -t 2.803979 -n 14 -e 99.998430
N -t 2.803979 -n 21 -e 99.998685
N -t 2.803979 -n 24 -e 99.998176
N -t 2.803979 -n 13 -e 99.998685
N -t 2.803979 -n 17 -e 99.999506
N -t 2.803979 -n 15 -e 99.998685
N -t 2.803980 -n 18 -e 99.998430
N -t 2.803980 -n 16 -e 99.998430
N -t 2.803980 -n 12 -e 99.998430
N -t 2.803980 -n 19 -e 99.998685
N -t 2.804341 -n 24 -e 99.998085
N -t 2.804342 -n 3 -e 99.998339
N -t 2.804342 -n 23 -e 99.998339
N -t 2.804342 -n 20 -e 99.997845
N -t 2.804342 -n 14 -e 99.998339
N -t 2.804342 -n 22 -e 99.998339
N -t 2.804342 -n 9 -e 99.998339
N -t 2.804342 -n 16 -e 99.998339
N -t 2.804342 -n 5 -e 99.998594
N -t 2.804342 -n 12 -e 99.998339
N -t 2.804342 -n 19 -e 99.998594
N -t 2.804342 -n 18 -e 99.998339
N -t 2.804342 -n 21 -e 99.998594
N -t 2.804343 -n 11 -e 99.998594
N -t 2.804343 -n 1 -e 99.998594
N -t 2.804343 -n 13 -e 99.998594
N -t 2.804343 -n 15 -e 99.998594
N -t 2.804656 -n 9 -e 99.998094
N -t 2.804656 -n 23 -e 99.998094
N -t 2.804656 -n 3 -e 99.998094
N -t 2.804656 -n 5 -e 99.998349
N -t 2.804656 -n 22 -e 99.998094
N -t 2.804657 -n 11 -e 99.998349
N -t 2.804657 -n 4 -e 99.997182
N -t 2.804657 -n 1 -e 99.998349
N -t 2.804657 -n 14 -e 99.998094
N -t 2.804657 -n 21 -e 99.998349
N -t 2.804657 -n 24 -e 99.997840
N -t 2.804657 -n 13 -e 99.998349
N -t 2.804657 -n 17 -e 99.999261
N -t 2.804657 -n 15 -e 99.998349
N -t 2.804657 -n 18 -e 99.998094
N -t 2.804657 -n 16 -e 99.998094
N -t 2.804658 -n 12 -e 99.998094
N -t 2.804658 -n 19 -e 99.998349
N -t 2.805483 -n 24 -e 99.997749
N -t 2.805483 -n 3 -e 99.998003
N -t 2.805483 -n 23 -e 99.998003
N -t 2.805483 -n 20 -e 99.997264
N -t 2.805484 -n 14 -e 99.998003
N -t 2.805484 -n 22 -e 99.998003
N -t 2.805484 -n 9 -e 99.998003
N -t 2.805484 -n 16 -e 99.998003
N -t 2.805484 -n 5 -e 99.998258
N -t 2.805484 -n 12 -e 99.998003
N -t 2.805484 -n 19 -e 99.998258
N -t 2.805484 -n 18 -e 99.998003
N -t 2.805484 -n 21 -e 99.998258
N -t 2.805484 -n 11 -e 99.998258
N -t 2.805484 -n 1 -e 99.998258
N -t 2.805484 -n 13 -e 99.998258
N -t 2.805484 -n 15 -e 99.998258
r 2.805497665 _4_ RTR  --- 0 AODV 44 [13a 4 14 800] [energy 99.997000 ei 0.000 es 0.000 et 0.002 er 0.001] ------- [20:255 4:255 30 4] [0x4 1 [20 4] 10.000000] (REPLY)
s 2.805497665 _4_ RTR  --- 0 cbr 1020 [0 0 0 0] [energy 99.997000 ei 0.000 es 0.000 et 0.002 er 0.001] ------- [4:0 20:0 30 20] [0] 0 0
N -t 2.806197 -n 24 -e 99.997643
N -t 2.806197 -n 3 -e 99.997898
N -t 2.806197 -n 23 -e 99.997898
N -t 2.806197 -n 20 -e 99.997158
N -t 2.806198 -n 14 -e 99.997898
N -t 2.806198 -n 22 -e 99.997898
N -t 2.806198 -n 9 -e 99.997898
N -t 2.806198 -n 16 -e 99.997898
N -t 2.806198 -n 5 -e 99.998152
N -t 2.806198 -n 12 -e 99.997898
N -t 2.806198 -n 19 -e 99.998152
N -t 2.806198 -n 18 -e 99.997898
N -t 2.806198 -n 21 -e 99.998152
N -t 2.806198 -n 11 -e 99.998152
N -t 2.806198 -n 1 -e 99.998152
N -t 2.806198 -n 13 -e 99.998152
N -t 2.806198 -n 15 -e 99.998152
N -t 2.806560 -n 9 -e 99.997806
N -t 2.806560 -n 23 -e 99.997806
N -t 2.806560 -n 3 -e 99.997806
N -t 2.806560 -n 5 -e 99.998061
N -t 2.806560 -n 22 -e 99.997806
N -t 2.806560 -n 11 -e 99.998061
N -t 2.806560 -n 4 -e 99.996698
N -t 2.806560 -n 1 -e 99.998061
N -t 2.806560 -n 14 -e 99.997806
N -t 2.806561 -n 21 -e 99.998061
N -t 2.806561 -n 24 -e 99.997552
N -t 2.806561 -n 13 -e 99.998061
N -t 2.806561 -n 17 -e 99.999170
N -t 2.806561 -n 15 -e 99.998061
N -t 2.806561 -n 18 -e 99.997806
N -t 2.806561 -n 16 -e 99.997806
N -t 2.806561 -n 12 -e 99.997806
N -t 2.806561 -n 19 -e 99.998061
N -t 2.806875 -n 24 -e 99.994965
N -t 2.806875 -n 3 -e 99.995219
N -t 2.806875 -n 23 -e 99.995219
N -t 2.806875 -n 20 -e 99.994389
N -t 2.806875 -n 14 -e 99.995219
N -t 2.806875 -n 22 -e 99.995219
N -t 2.806876 -n 9 -e 99.995219
N -t 2.806876 -n 16 -e 99.995219
N -t 2.806876 -n 5 -e 99.995474
N -t 2.806876 -n 12 -e 99.995219
N -t 2.806876 -n 19 -e 99.995474
N -t 2.806876 -n 18 -e 99.995219
N -t 2.806876 -n 21 -e 99.995474
N -t 2.806876 -n 11 -e 99.995474
N -t 2.806876 -n 1 -e 99.995474
N -t 2.806876 -n 13 -e 99.995474
N -t 2.806876 -n 15 -e 99.995474
s 2.807337393 _23_ RTR  --- 0 AODV 48 [0 ffffffff 4 800] [energy 99.995219 ei 0.000 es 0.000 et 0.000 er 0.005] ------- [23:255 -1:255 29 0] [0x2 2 2 [20 0] [4 6]] (REQUEST)
s 2.809112961 _24_ RTR  --- 0 AODV 48 [0 ffffffff 4 800] [energy 99.994965 ei 0.000 es 0.000 et 0.001 er 0.005] ------- [24:255 -1:255 29 0] [0x2 2 2 [20 0] [4 6]] (REQUEST)
s 2.815497665 _4_ RTR  --- 1 cbr 1020 [0 0 0 0] [energy 99.991523 ei 0.000 es 0.000 et 0.007 er 0.001] ------- [4:0 20:0 30 20] [1] 0 0
N -t 2.815510 -n 9 -e 99.995128
N -t 2.815510 -n 23 -e 99.995128
N -t 2.815510 -n 3 -e 99.995128
N -t 2.815510 -n 5 -e 99.995382
N -t 2.815510 -n 22 -e 99.995128
N -t 2.815510 -n 11 -e 99.995382
N -t 2.815510 -n 4 -e 99.991432
N -t 2.815510 -n 1 -e 99.995382
N -t 2.815510 -n 14 -e 99.995128
N -t 2.815510 -n 21 -e 99.995382
N -t 2.815510 -n 24 -e 99.994874
N -t 2.815510 -n 13 -e 99.995382
N -t 2.815510 -n 17 -e 99.999078
N -t 2.815510 -n 15 -e 99.995382
N -t 2.815511 -n 18 -e 99.995128
N -t 2.815511 -n 16 -e 99.995128
N -t 2.815511 -n 12 -e 99.995128
N -t 2.815511 -n 19 -e 99.995382
r 2.815524164 _20_ AGT  --- 0 cbr 1020 [13a 14 4 800] [energy 99.994206 ei 0.000 es 0.000 et 0.002 er 0.004] ------- [4:0 20:0 30 20] [0] 1 0
N -t 2.815884 -n 23 -e 99.994874
N -t 2.815884 -n 22 -e 99.994874
N -t 2.815884 -n 14 -e 99.994874
N -t 2.815884 -n 20 -e 99.993952
N -t 2.815884 -n 4 -e 99.991178
N -t 2.815884 -n 5 -e 99.995128
N -t 2.815885 -n 21 -e 99.995128
N -t 2.815885 -n 1 -e 99.995128
N -t 2.815885 -n 9 -e 99.994874
N -t 2.815885 -n 24 -e 99.994619
N -t 2.815885 -n 18 -e 99.994874
N -t 2.815885 -n 13 -e 99.995128
N -t 2.815885 -n 11 -e 99.995128
N -t 2.815885 -n 16 -e 99.994874
N -t 2.815885 -n 15 -e 99.995128
N -t 2.815885 -n 12 -e 99.994874
N -t 2.815885 -n 19 -e 99.995128
N -t 2.815885 -n 17 -e 99.998824
N -t 2.815885 -n 6 -e 99.999746
N -t 2.815885 -n 8 -e 99.999746
N -t 2.815885 -n 0 -e 99.999746
N -t 2.815885 -n 10 -e 99.999746
N -t 2.815885 -n 2 -e 99.999746
r 2.816756763 _23_ RTR  --- 0 AODV 48 [0 ffffffff 3 800] [energy 99.994874 ei 0.000 es 0.000 et 0.000 er 0.005] ------- [3:255 -1:255 29 0] [0x2 2 2 [20 0] [4 6]] (REQUEST)
r 2.816757104 _22_ RTR  --- 0 AODV 48 [0 ffffffff 3 800] [energy 99.994874 ei 0.000 es 0.000 et 0.000 er 0.005] ------- [3:255 -1:255 29 0] [0x2 2 2 [20 0] [4 6]] (REQUEST)
r 2.816757143 _14_ RTR  --- 0 AODV 48 [0 ffffffff 3 800] [energy 99.994874 ei 0.000 es 0.000 et 0.000 er 0.005] ------- [3:255 -1:255 29 0] [0x2 2 2 [20 0] [4 6]] (REQUEST)
r 2.816757259 _20_ RTR  --- 0 AODV 48 [0 ffffffff 3 800] [energy 99.993952 ei 0.000 es 0.000 et 0.002 er 0.004] ------- [3:255 -1:255 29 0] [0x2 2 2 [20 0] [4 6]] (REQUEST)
r 2.816757402 _4_ RTR  --- 0 AODV 48 [0 ffffffff 3 800] [energy 99.991178 ei 0.000 es 0.000 et 0.007 er 0.001] ------- [3:255 -1:255 29 0] [0x2 2 2 [20 0] [4 6]] (REQUEST)
r 2.816757492 _5_ RTR  --- 0 AODV 48 [0 ffffffff 3 800] [energy 99.995128 ei 0.000 es 0.000 et 0.000 er 0.005] ------- [3:255 -1:255 29 0] [0x2 2 2 [20 0] [4 6]] (REQUEST)
r 2.816757505 _21_ RTR  --- 0 AODV 48 [0 ffffffff 3 800] [energy 99.995128 ei 0.000 es 0.000 et 0.000 er 0.005] ------- [3:255 -1:255 29 0] [0x2 2 2 [20 0] [4 6]] (REQUEST)
r 2.816757545 _1_ RTR  --- 0 AODV 48 [0 ffffffff 3 800] [energy 99.995128 ei 0.000 es 0.000 et 0.000 er 0.005] ------- [3:255 -1:255 29 0] [0x2 2 2 [20 0] [4 6]] (REQUEST)
N -t 2.816922 -n 3 -e 99.994365
N -t 2.816922 -n 22 -e 99.994619
N -t 2.816922 -n 14 -e 99.994619
N -t 2.816922 -n 20 -e 99.993698
N -t 2.816923 -n 5 -e 99.994874
N -t 2.816923 -n 4 -e 99.990923
N -t 2.816923 -n 21 -e 99.994874
N -t 2.816923 -n 1 -e 99.994874
N -t 2.816923 -n 9 -e 99.994619
N -t 2.816923 -n 24 -e 99.994365
N -t 2.816923 -n 13 -e 99.994874
N -t 2.816923 -n 18 -e 99.994619
N -t 2.816923 -n 11 -e 99.994874
N -t 2.816923 -n 16 -e 99.994619
N -t 2.816923 -n 15 -e 99.994874
N -t 2.816923 -n 17 -e 99.998570
N -t 2.816923 -n 12 -e 99.994619
N -t 2.816923 -n 19 -e 99.994874
N -t 2.816923 -n 6 -e 99.999491
N -t 2.816923 -n 0 -e 99.999491
N -t 2.816923 -n 8 -e 99.999491
N -t 2.816923 -n 10 -e 99.999491
N -t 2.816923 -n 2 -e 99.999491
N -t 2.816924 -n 7 -e 99.999746
r 2.817794814 _3_ RTR  --- 0 AODV 48 [0 ffffffff 17 800] [energy 99.994365 ei 0.000 es 0.000 et 0.001 er 0.005] ------- [23:255 -1:255 29 0] [0x2 2 2 [20 0] [4 6]] (REQUEST)
r 2.817795105 _22_ RTR  --- 0 AODV 48 [0 ffffffff 17 800] [energy 99.994619 ei 0.000 es 0.000 et 0.000 er 0.005] ------- [23:255 -1:255 29 0] [0x2 2 2 [20 0] [4 6]] (REQUEST)
r 2.817795207 _14_ RTR  --- 0 AODV 48 [0 ffffffff 17 800] [energy 99.994619 ei 0.000 es 0.000 et 0.000 er 0.005] ------- [23:255 -1:255 29 0] [0x2 2 2 [20 0] [4 6]] (REQUEST)
r 2.817795301 _20_ RTR  --- 0 AODV 48 [0 ffffffff 17 800] [energy 99.993698 ei 0.000 es 0.000 et 0.002 er 0.004] ------- [23:255 -1:255 29 0] [0x2 2 2 [20 0] [4 6]] (REQUEST)
r 2.817795500 _5_ RTR  --- 0 AODV 48 [0 ffffffff 17 800] [energy 99.994874 ei 0.000 es 0.000 et 0.000 er 0.005] ------- [23:255 -1:255 29 0] [0x2 2 2 [20 0] [4 6]] (REQUEST)
r 2.817795501 _4_ RTR  --- 0 AODV 48 [0 ffffffff 17 800] [energy 99.990923 ei 0.000 es 0.000 et 0.007 er 0.002] ------- [23:255 -1:255 29 0] [0x2 2 2 [20 0] [4 6]] (REQUEST)
r 2.817795508 _21_ RTR  --- 0 AODV 48 [0 ffffffff 17 800] [energy 99.994874 ei 0.000 es 0.000 et 0.000 er 0.005] ------- [23:255 -1:255 29 0] [0x2 2 2 [20 0] [4 6]] (REQUEST)
r 2.817795546 _1_ RTR  --- 0 AODV 48 [0 ffffffff 17 800] [energy 99.994874 ei 0.000 es 0.000 et 0.000 er 0.005] ------- [23:255 -1:255 29 0] [0x2 2 2 [20 0] [4 6]] (REQUEST)
r 2.817795576 _9_ RTR  --- 0 AODV 48 [0 ffffffff 17 800] [energy 99.994619 ei 0.000 es 0.000 et 0.000 er 0.005] ------- [23:255 -1:255 29 0] [0x2 2 2 [20 0] [4 6]] (REQUEST)
N -t 2.818001 -n 24 -e 99.994259
N -t 2.818001 -n 3 -e 99.994259
N -t 2.818001 -n 23 -e 99.994259
N -t 2.818001 -n 20 -e 99.993592
N -t 2.818001 -n 14 -e 99.994514
N -t 2.818002 -n 22 -e 99.994514
N -t 2.818002 -n 9 -e 99.994514
N -t 2.818002 -n 16 -e 99.994514
N -t 2.818002 -n 5 -e 99.994768
N -t 2.818002 -n 12 -e 99.994514
N -t 2.818002 -n 19 -e 99.994768
N -t 2.818002 -n 18 -e 99.994514
N -t 2.818002 -n 21 -e 99.994768
N -t 2.818002 -n 11 -e 99.994768
N -t 2.818002 -n 1 -e 99.994768
N -t 2.818002 -n 13 -e 99.994768
N -t 2.818002 -n 15 -e 99.994768
N -t 2.818364 -n 9 -e 99.994422
N -t 2.818364 -n 23 -e 99.994168
N -t 2.818364 -n 3 -e 99.994168
N -t 2.818364 -n 5 -e 99.994677
N -t 2.818364 -n 22 -e 99.994422
N -t 2.818364 -n 11 -e 99.994677
N -t 2.818364 -n 4 -e 99.990621
N -t 2.818364 -n 1 -e 99.994677
N -t 2.818364 -n 14 -e 99.994422
N -t 2.818364 -n 21 -e 99.994677
N -t 2.818364 -n 24 -e 99.994168
N -t 2.818364 -n 13 -e 99.994677
N -t 2.818365 -n 17 -e 99.998478
N -t 2.818365 -n 15 -e 99.994677
N -t 2.818365 -n 18 -e 99.994422
N -t 2.818365 -n 16 -e 99.994422
N -t 2.818365 -n 12 -e 99.994422
N -t 2.818365 -n 19 -e 99.994677
N -t 2.818678 -n 24 -e 99.991581
N -t 2.818679 -n 3 -e 99.991581
N -t 2.818679 -n 23 -e 99.991581
N -t 2.818679 -n 20 -e 99.990822
N -t 2.818679 -n 14 -e 99.991835
N -t 2.818679 -n 22 -e 99.991835
N -t 2.818679 -n 9 -e 99.991835
N -t 2.818679 -n 16 -e 99.991835
N -t 2.818679 -n 5 -e 99.992090
N -t 2.818680 -n 12 -e 99.991835
N -t 2.818680 -n 19 -e 99.992090
N -t 2.818680 -n 18 -e 99.991835
N -t 2.818680 -n 21 -e 99.992090
N -t 2.818680 -n 11 -e 99.992090
N -t 2.818680 -n 1 -e 99.992090
N -t 2.818680 -n 13 -e 99.992090
N -t 2.818680 -n 15 -e 99.992090
s 2.819338022 _14_ RTR  --- 0 AODV 48 [0 ffffffff 3 800] [energy 99.991835 ei 0.000 es 0.000 et 0.000 er 0.008] ------- [14:255 -1:255 28 0] [0x2 3 2 [20 0] [4 6]] (REQUEST)
s 2.820244515 _22_ RTR  --- 0 AODV 48 [0 ffffffff 3 800] [energy 99.991835 ei 0.000 es 0.000 et 0.000 er 0.008] ------- [22:255 -1:255 28 0] [0x2 3 2 [20 0] [4 6]] (REQUEST)
s 2.820844349 _5_ RTR  --- 0 AODV 48 [0 ffffffff 3 800] [energy 99.992090 ei 0.000 es 0.000 et 0.000 er 0.008] ------- [5:255 -1:255 28 0] [0x2 3 2 [20 0] [4 6]] (REQUEST)
s 2.821418704 _1_ RTR  --- 0 AODV 48 [0 ffffffff 3 800] [energy 99.992090 ei 0.000 es 0.000 et 0.000 er 0.008] ------- [1:255 -1:255 28 0] [0x2 3 2 [20 0] [4 6]] (REQUEST)
s 2.821943993 _21_ RTR  --- 0 AODV 48 [0 ffffffff 3 800] [energy 99.992090 ei 0.000 es 0.000 et 0.000 er 0.008] ------- [21:255 -1:255 28 0] [0x2 3 2 [20 0] [4 6]] (REQUEST)
s 2.825497665 _4_ RTR  --- 2 cbr 1020 [0 0 0 0] [energy 99.985446 ei 0.000 es 0.000 et 0.013 er 0.002] ------- [4:0 20:0 30 20] [2] 0 0
s 2.826416249 _9_ RTR  --- 0 AODV 48 [0 ffffffff 17 800] [energy 99.991835 ei 0.000 es 0.000 et 0.000 er 0.008] ------- [9:255 -1:255 28 0] [0x2 3 2 [20 0] [4 6]] (REQUEST)
N -t 2.827313 -n 9 -e 99.991744
N -t 2.827314 -n 23 -e 99.991490
N -t 2.827314 -n 3 -e 99.991490
N -t 2.827314 -n 5 -e 99.991998
N -t 2.827314 -n 22 -e 99.991744
N -t 2.827314 -n 11 -e 99.991998
N -t 2.827314 -n 4 -e 99.985355
N -t 2.827314 -n 1 -e 99.991998
N -t 2.827314 -n 14 -e 99.991744
N -t 2.827314 -n 21 -e 99.991998
N -t 2.827314 -n 24 -e 99.991490
N -t 2.827314 -n 13 -e 99.991998
N -t 2.827314 -n 17 -e 99.998387
N -t 2.827314 -n 15 -e 99.991998
N -t 2.827314 -n 18 -e 99.991744
N -t 2.827315 -n 16 -e 99.991744
N -t 2.827315 -n 12 -e 99.991744
N -t 2.827315 -n 19 -e 99.991998
r 2.827327998 _20_ AGT  --- 1 cbr 1020 [13a 14 4 800] [energy 99.990640 ei 0.000 es 0.000 et 0.002 er 0.007] ------- [4:0 20:0 30 20] [1] 1 0
N -t 2.827808 -n 24 -e 99.991384
N -t 2.827809 -n 3 -e 99.991384
N -t 2.827809 -n 23 -e 99.991384
N -t 2.827809 -n 20 -e 99.990534
N -t 2.827809 -n 14 -e 99.991638
N -t 2.827809 -n 22 -e 99.991638
N -t 2.827809 -n 9 -e 99.991638
N -t 2.827809 -n 16 -e 99.991638
N -t 2.827809 -n 5 -e 99.991893
N -t 2.827809 -n 12 -e 99.991638
N -t 2.827809 -n 19 -e 99.991893
N -t 2.827809 -n 18 -e 99.991638
N -t 2.827809 -n 21 -e 99.991893
N -t 2.827809 -n 11 -e 99.991893
N -t 2.827809 -n 1 -e 99.991893
N -t 2.827809 -n 13 -e 99.991893
N -t 2.827810 -n 15 -e 99.991893
N -t 2.828171 -n 9 -e 99.991547
N -t 2.828171 -n 23 -e 99.991293
N -t 2.828171 -n 3 -e 99.991293
N -t 2.828171 -n 5 -e 99.991802
N -t 2.828171 -n 22 -e 99.991547
N -t 2.828171 -n 11 -e 99.991802
N -t 2.828171 -n 4 -e 99.985053
N -t 2.828172 -n 1 -e 99.991802
N -t 2.828172 -n 14 -e 99.991547
N -t 2.828172 -n 21 -e 99.991802
N -t 2.828172 -n 24 -e 99.991293
N -t 2.828172 -n 13 -e 99.991802
N -t 2.828172 -n 17 -e 99.998296
N -t 2.828172 -n 15 -e 99.991802
N -t 2.828172 -n 18 -e 99.991547
N -t 2.828172 -n 16 -e 99.991547
N -t 2.828172 -n 12 -e 99.991547
N -t 2.828172 -n 19 -e 99.991802
N -t 2.828486 -n 24 -e 99.988706
N -t 2.828486 -n 3 -e 99.988706
N -t 2.828486 -n 23 -e 99.988706
N -t 2.828486 -n 20 -e 99.987765
N -t 2.828486 -n 14 -e 99.988960
N -t 2.828487 -n 22 -e 99.988960
N -t 2.828487 -n 9 -e 99.988960
N -t 2.828487 -n 16 -e 99.988960
N -t 2.828487 -n 5 -e 99.989214
N -t 2.828487 -n 12 -e 99.988960
N -t 2.828487 -n 19 -e 99.989214
N -t 2.828487 -n 18 -e 99.988960
N -t 2.828487 -n 21 -e 99.989214
N -t 2.828487 -n 11 -e 99.989214
N -t 2.828487 -n 1 -e 99.989214
N -t 2.828487 -n 13 -e 99.989214
N -t 2.828487 -n 15 -e 99.989214
s 2.835497665 _4_ RTR  --- 3 cbr 1020 [0 0 0 0] [energy 99.979878 ei 0.000 es 0.000 et 0.018 er 0.002] ------- [4:0 20:0 30 20] [3] 0 0
N -t 2.837121 -n 9 -e 99.988869
N -t 2.837121 -n 23 -e 99.988614
N -t 2.837121 -n 3 -e 99.988614
N -t 2.837121 -n 5 -e 99.989123
N -t 2.837121 -n 22 -e 99.988869
N -t 2.837121 -n 11 -e 99.989123
N -t 2.837121 -n 4 -e 99.979787
N -t 2.837121 -n 1 -e 99.989123
N -t 2.837121 -n 14 -e 99.988869
N -t 2.837121 -n 21 -e 99.989123
N -t 2.837121 -n 24 -e 99.988614
N -t 2.837121 -n 13 -e 99.989123
N -t 2.837122 -n 17 -e 99.998205
N -t 2.837122 -n 15 -e 99.989123
N -t 2.837122 -n 18 -e 99.988869
N -t 2.837122 -n 16 -e 99.988869
N -t 2.837122 -n 12 -e 99.988869
N -t 2.837122 -n 19 -e 99.989123
r 2.837135326 _20_ AGT  --- 2 cbr 1020 [13a 14 4 800] [energy 99.987582 ei 0.000 es 0.000 et 0.003 er 0.010] ------- [4:0 20:0 30 20] [2] 1 0
N -t 2.837555 -n 24 -e 99.988509
N -t 2.837556 -n 3 -e 99.988509
N -t 2.837556 -n 23 -e 99.988509
N -t 2.837556 -n 20 -e 99.987477
N -t 2.837556 -n 14 -e 99.988763
N -t 2.837556 -n 22 -e 99.988763
N -t 2.837556 -n 9 -e 99.988763
N -t 2.837556 -n 16 -e 99.988763
N -t 2.837556 -n 5 -e 99.989018
N -t 2.837557 -n 12 -e 99.988763
N -t 2.837557 -n 19 -e 99.989018
N -t 2.837557 -n 18 -e 99.988763
N -t 2.837557 -n 21 -e 99.989018
N -t 2.837557 -n 11 -e 99.989018
N -t 2.837557 -n 1 -e 99.989018
N -t 2.837557 -n 13 -e 99.989018
N -t 2.837557 -n 15 -e 99.989018
N -t 2.837918 -n 9 -e 99.988672
N -t 2.837919 -n 23 -e 99.988418
N -t 2.837919 -n 3 -e 99.988418
N -t 2.837919 -n 5 -e 99.988926
N -t 2.837919 -n 22 -e 99.988672
N -t 2.837919 -n 11 -e 99.988926
N -t 2.837919 -n 4 -e 99.979485
N -t 2.837919 -n 1 -e 99.988926
N -t 2.837919 -n 14 -e 99.988672
N -t 2.837919 -n 21 -e 99.988926