n -t * -s 0  -x 200.79773953221633 -y 646.08665436789704 -Z 0 -z 50  -v circle -c green
n -t * -s 1  -x 472.99995155679056 -y 568.14865198365817 -Z 0 -z 50  -v circle -c green
n -t * -s 2  -x 92.992361678272658 -y 738.09818138279866 -Z 0 -z 50  -v circle -c green
n -t * -s 3  -x 520.16812587164713 -y 372.55321981969905 -Z 0 -z 50  -v circle -c green
n -t * -s 4  -x 877.45688710243292 -y 334.32122447263504 -Z 0 -z 50  -v circle -c green
n -t * -s 5  -x 671.0246394719112 -y 728.89248352911909 -Z 0 -z 50  -v circle -c green
n -t * -s 6  -x 119.96334237976156 -y 179.11630132194435 -Z 0 -z 50  -v circle -c green
n -t * -s 7  -x 9.5953973986187009 -y 215.87526286760124 -Z 0 -z 50  -v circle -c green
n -t * -s 8  -x 269.42876971765827 -y 231.46611574639851 -Z 0 -z 50  -v circle -c green
n -t * -s 9  -x 813.75918714970305 -y 680.52674004832602 -Z 0 -z 50  -v circle -c green
n -t * -s 10  -x 16.149990268121471 -y 346.30914905402307 -Z 0 -z 50  -v circle -c green
n -t * -s 11  -x 522.33518870656155 -y 710.01327294391263 -Z 0 -z 50  -v circle -c green
n -t * -s 12  -x 491.34796042523715 -y 68.136693568963878 -Z 0 -z 50  -v circle -c green
n -t * -s 13  -x 466.76101696992339 -y 681.92977080211494 -Z 0 -z 50  -v circle -c green
n -t * -s 14  -x 492.07233893315885 -y 207.84035968028024 -Z 0 -z 50  -v circle -c green
n -t * -s 15  -x 466.15643308784649 -y 552.93672594844213 -Z 0 -z 50  -v circle -c green
n -t * -s 16  -x 509.44126933321422 -y 143.53094666429374 -Z 0 -z 50  -v circle -c green
n -t * -s 17  -x 405.77573348105688 -y 698.2020928981724 -Z 0 -z 50  -v circle -c green
n -t * -s 18  -x 353.21917447877075 -y 443.73237176040766 -Z 0 -z 50  -v circle -c green
n -t * -s 19  -x 262.46522146391925 -y 202.38171527273101 -Z 0 -z 50  -v circle -c green
n -t * -s 20  -x 786.86073598771384 -y 614.71179640605658 -Z 0 -z 50  -v circle -c green
n -t * -s 21  -x 326.45274574237538 -y 553.03815368238759 -Z 0 -z 50  -v circle -c green
n -t * -s 22  -x 640.31117485850643 -y 567.93267753344617 -Z 0 -z 50  -v circle -c green
n -t * -s 23  -x 555.63913078775579 -y 501.4969198505845 -Z 0 -z 50  -v circle -c green
n -t * -s 24  -x 823.41491096812058 -y 107.52691296279752 -Z 0 -z 50  -v circle -c green
V -t * -v 1.0a5 -a 0
W -t * -x 1000 -y 800
A -t * -n 1 -p 0 -o 0x7fffffff -c 30 -a 1
A -t * -h 1 -m 1073741823 -s 0
c -t * -i 0 -n red
v -t 0.01 -e sim_annotation 0.01 1 Network Deployment
n -t 0.100000 -s 0 -x 200.797740 -y 646.086654 -U -20.207372 -V -34.520460 -T 9.638316
n -t 0.100000 -s 1 -x 472.999952 -y 568.148652 -U -21.855646 -V 33.501205 -T 0.563465
n -t 0.100000 -s 2 -x 92.992362 -y 738.098181 -U 27.261789 -V -29.271059 -T 21.168618
n -t 0.100000 -s 3 -x 520.168126 -y 372.553220 -U 38.790764 -V 9.760974 -T 10.131236
n -t 0.100000 -s 4 -x 877.456887 -y 334.321224 -U -32.680500 -V -23.064799 -T 13.138338
n -t 0.100000 -s 5 -x 671.024639 -y 728.892484 -U -18.942806 -V -35.230244 -T 18.323884
n -t 0.100000 -s 6 -x 119.963342 -y 179.116301 -U 39.261478 -V 7.650904 -T 17.790189
n -t 0.100000 -s 7 -x 9.595397 -y 215.875263 -U 27.351886 -V 29.186886 -T 19.098622
n -t 0.100000 -s 8 -x 269.428770 -y 231.466116 -U -36.714444 -V -15.876070 -T 2.907430
n -t 0.100000 -s 9 -x 813.759187 -y 680.526740 -U -36.413277 -V -16.555157 -T 20.147808
n -t 0.100000 -s 10 -x 16.149990 -y 346.309149 -U 38.508509 -V -10.821032 -T 13.732451
n -t 0.100000 -s 11 -x 522.335189 -y 710.013273 -U 39.511256 -V -6.233833 -T 2.897270
n -t 0.100000 -s 12 -x 491.347960 -y 68.136694 -U -31.132773 -V 25.114746 -T 14.166414
n -t 0.100000 -s 13 -x 466.761017 -y 681.929771 -U -20.216773 -V -34.514955 -T 18.949776
n -t 0.100000 -s 14 -x 492.072339 -y 207.840360 -U 15.209716 -V 36.995467 -T 14.014992
n -t 0.100000 -s 15 -x 466.156433 -y 552.936726 -U -34.184880 -V 20.770026 -T 4.342368
n -t 0.100000 -s 16 -x 509.441269 -y 143.530947 -U -37.235510 -V 14.612213 -T 5.306506
n -t 0.100000 -s 17 -x 405.775733 -y 698.202093 -U 37.613408 -V -13.609979 -T 0.381217
n -t 0.100000 -s 18 -x 353.219174 -y 443.732372 -U -0.134888 -V -39.999773 -T 6.765695
n -t 0.100000 -s 19 -x 262.465221 -y 202.381715 -U 38.348700 -V -11.374411 -T 12.529850
n -t 0.100000 -s 20 -x 786.860736 -y 614.711796 -U -17.214796 -V -36.106105 -T 9.305736
n -t 0.100000 -s 21 -x 326.452746 -y 553.038154 -U 39.743836 -V -4.519678 -T 4.742655
n -t 0.100000 -s 22 -x 640.311175 -y 567.932678 -U -30.018461 -V -26.436566 -T 10.935857
n -t 0.100000 -s 23 -x 555.639131 -y 501.496920 -U 22.676274 -V -32.951276 -T 10.318465
n -t 0.100000 -s 24 -x 823.414911 -y 107.526913 -U -8.368680 -V 39.114769 -T 13.589071
+ -t 1.000000000 -s 4 -d -1 -p cbr -e 1000 -c 2 -a 0 -i 0 -k AGT 
- -t 1.000000000 -s 4 -d -1 -p cbr -e 1000 -c 2 -a 0 -i 0 -k AGT
h -t 1.000000000 -s 4 -d -1 -p cbr -e 1000 -c 2 -a 0 -i 0 -k AGT
m -t 1 -s 4 -n m -c blue -h square
m -t 1 -s 20 -n m -c red -h square
n -t 1 -s 4 -S DLABEL -l "SENDER" -L ""
n -t 1 -s 20 -S DLABEL -l "RECEIVER" -L ""
+ -t 1.000000000 -s 4 -d -1 -p AODV -e 48 -c 2 -a 0 -i 0 -k RTR 
- -t 1.000000000 -s 4 -d -1 -p AODV -e 48 -c 2 -a 0 -i 0 -k RTR
h -t 1.000000000 -s 4 -d -1 -p AODV -e 48 -c 2 -a 0 -i 0 -k RTR
r -t 1.001408579 -s 24 -d -1 -p AODV -e 48 -c 2 -a 0 -i 0 -k RTR
+ -t 1.001550626 -s 24 -d -1 -p AODV -e 48 -c 2 -a 0 -i 0 -k RTR 
- -t 1.001550626 -s 24 -d -1 -p AODV -e 48 -c 2 -a 0 -i 0 -k RTR
h -t 1.001550626 -s 24 -d -1 -p AODV -e 48 -c 2 -a 0 -i 0 -k RTR
r -t 1.002799205 -s 4 -d -1 -p AODV -e 48 -c 2 -a 0 -i 0 -k RTR
+ -t 1.100000000 -s 4 -d -1 -p cbr -e 1000 -c 2 -a 0 -i 1 -k AGT 
- -t 1.100000000 -s 4 -d -1 -p cbr -e 1000 -c 2 -a 0 -i 1 -k AGT
h -t 1.100000000 -s 4 -d -1 -p cbr -e 1000 -c 2 -a 0 -i 1 -k AGT
+ -t 1.200000000 -s 4 -d -1 -p cbr -e 1000 -c 2 -a 0 -i 2 -k AGT 
- -t 1.200000000 -s 4 -d -1 -p cbr -e 1000 -c 2 -a 0 -i 2 -k AGT
h -t 1.200000000 -s 4 -d -1 -p cbr -e 1000 -c 2 -a 0 -i 2 -k AGT
+ -t 1.300000000 -s 4 -d -1 -p cbr -e 1000 -c 2 -a 0 -i 3 -k AGT 
- -t 1.300000000 -s 4 -d -1 -p cbr -e 1000 -c 2 -a 0 -i 3 -k AGT
h -t 1.300000000 -s 4 -d -1 -p cbr -e 1000 -c 2 -a 0 -i 3 -k AGT
+ -t 1.400000000 -s 4 -d -1 -p cbr -e 1000 -c 2 -a 0 -i 4 -k AGT 
- -t 1.400000000 -s 4 -d -1 -p cbr -e 1000 -c 2 -a 0 -i 4 -k AGT
h -t 1.400000000 -s 4 -d -1 -p cbr -e 1000 -c 2 -a 0 -i 4 -k AGT
+ -t 1.500000000 -s 4 -d -1 -p cbr -e 1000 -c 2 -a 0 -i 5 -k AGT 
- -t 1.500000000 -s 4 -d -1 -p cbr -e 1000 -c 2 -a 0 -i 5 -k AGT
h -t 1.500000000 -s 4 -d -1 -p cbr -e 1000 -c 2 -a 0 -i 5 -k AGT
+ -t 1.600000000 -s 4 -d -1 -p cbr -e 1000 -c 2 -a 0 -i 6 -k AGT 
- -t 1.600000000 -s 4 -d -1 -p cbr -e 1000 -c 2 -a 0 -i 6 -k AGT
h -t 1.600000000 -s 4 -d -1 -p cbr -e 1000 -c 2 -a 0 -i 6 -k AGT
+ -t 1.700000000 -s 4 -d -1 -p cbr -e 1000 -c 2 -a 0 -i 7 -k AGT 
- -t 1.700000000 -s 4 -d -1 -p cbr -e 1000 -c 2 -a 0 -i 7 -k AGT
h -t 1.700000000 -s 4 -d -1 -p cbr -e 1000 -c 2 -a 0 -i 7 -k AGT
+ -t 1.800000000 -s 4 -d -1 -p cbr -e 1000 -c 2 -a 0 -i 8 -k AGT 
- -t 1.800000000 -s 4 -d -1 -p cbr -e 1000 -c 2 -a 0 -i 8 -k AGT
h -t 1.800000000 -s 4 -d -1 -p cbr -e 1000 -c 2 -a 0 -i 8 -k AGT
+ -t 1.900000000 -s 4 -d -1 -p cbr -e 1000 -c 2 -a 0 -i 9 -k AGT 
- -t 1.900000000 -s 4 -d -1 -p cbr -e 1000 -c 2 -a 0 -i 9 -k AGT
h -t 1.900000000 -s 4 -d -1 -p cbr -e 1000 -c 2 -a 0 -i 9 -k AGT
+ -t 2.000000000 -s 4 -d -1 -p cbr -e 1000 -c 2 -a 0 -i 10 -k AGT 
- -t 2.000000000 -s 4 -d -1 -p cbr -e 1000 -c 2 -a 0 -i 10 -k AGT
h -t 2.000000000 -s 4 -d -1 -p cbr -e 1000 -c 2 -a 0 -i 10 -k AGT
+ -t 2.100000000 -s 4 -d -1 -p cbr -e 1000 -c 2 -a 0 -i 11 -k AGT 
- -t 2.100000000 -s 4 -d -1 -p cbr -e 1000 -c 2 -a 0 -i 11 -k AGT
h -t 2.100000000 -s 4 -d -1 -p cbr -e 1000 -c 2 -a 0 -i 11 -k AGT
+ -t 2.200000000 -s 4 -d -1 -p cbr -e 1000 -c 2 -a 0 -i 12 -k AGT 
- -t 2.200000000 -s 4 -d -1 -p cbr -e 1000 -c 2 -a 0 -i 12 -k AGT
h -t 2.200000000 -s 4 -d -1 -p cbr -e 1000 -c 2 -a 0 -i 12 -k AGT
+ -t 2.300000000 -s 4 -d -1 -p cbr -e 1000 -c 2 -a 0 -i 13 -k AGT 
- -t 2.300000000 -s 4 -d -1 -p cbr -e 1000 -c 2 -a 0 -i 13 -k AGT
h -t 2.300000000 -s 4 -d -1 -p cbr -e 1000 -c 2 -a 0 -i 13 -k AGT
+ -t 2.400000000 -s 4 -d -1 -p cbr -e 1000 -c 2 -a 0 -i 14 -k AGT 
- -t 2.400000000 -s 4 -d -1 -p cbr -e 1000 -c 2 -a 0 -i 14 -k AGT
h -t 2.400000000 -s 4 -d -1 -p cbr -e 1000 -c 2 -a 0 -i 14 -k AGT
+ -t 2.500000000 -s 4 -d -1 -p cbr -e 1000 -c 2 -a 0 -i 15 -k AGT 
- -t 2.500000000 -s 4 -d -1 -p cbr -e 1000 -c 2 -a 0 -i 15 -k AGT
h -t 2.500000000 -s 4 -d -1 -p cbr -e 1000 -c 2 -a 0 -i 15 -k AGT
+ -t 2.600000000 -s 4 -d -1 -p cbr -e 1000 -c 2 -a 0 -i 16 -k AGT 
- -t 2.600000000 -s 4 -d -1 -p cbr -e 1000 -c 2 -a 0 -i 16 -k AGT
h -t 2.600000000 -s 4 -d -1 -p cbr -e 1000 -c 2 -a 0 -i 16 -k AGT
+ -t 2.700000000 -s 4 -d -1 -p cbr -e 1000 -c 2 -a 0 -i 17 -k AGT 
- -t 2.700000000 -s 4 -d -1 -p cbr -e 1000 -c 2 -a 0 -i 17 -k AGT
h -t 2.700000000 -s 4 -d -1 -p cbr -e 1000 -c 2 -a 0 -i 17 -k AGT
+ -t 2.800000000 -s 4 -d -1 -p cbr -e 1000 -c 2 -a 0 -i 18 -k AGT 
- -t 2.800000000 -s 4 -d -1 -p cbr -e 1000 -c 2 -a 0 -i 18 -k AGT
h -t 2.800000000 -s 4 -d -1 -p cbr -e 1000 -c 2 -a 0 -i 18 -k AGT
+ -t 2.800000000 -s 4 -d -1 -p AODV -e 48 -c 2 -a 0 -i 0 -k RTR 
- -t 2.800000000 -s 4 -d -1 -p AODV -e 48 -c 2 -a 0 -i 0 -k RTR
h -t 2.800000000 -s 4 -d -1 -p AODV -e 48 -c 2 -a 0 -i 0 -k RTR
r -t 2.800948200 -s 24 -d -1 -p AODV -e 48 -c 2 -a 0 -i 0 -k RTR
r -t 2.800948692 -s 3 -d -1 -p AODV -e 48 -c 2 -a 0 -i 0 -k RTR
r -t 2.800948741 -s 23 -d -1 -p AODV -e 48 -c 2 -a 0 -i 0 -k RTR
r -t 2.800948833 -s 20 -d -1 -p AODV -e 48 -c 2 -a 0 -i 0 -k RTR
+ -t 2.800948833 -s 20 -d 4 -p AODV -e 44 -c 2 -a 0 -i 0 -k RTR 
- -t 2.800948833 -s 20 -d 4 -p AODV -e 44 -c 2 -a 0 -i 0 -k RTR
h -t 2.800948833 -s 20 -d 4 -p AODV -e 44 -c 2 -a 0 -i 0 -k RTR
+ -t 2.803294709 -s 3 -d -1 -p AODV -e 48 -c 2 -a 0 -i 0 -k RTR 
- -t 2.803294709 -s 3 -d -1 -p AODV -e 48 -c 2 -a 0 -i 0 -k RTR
h -t 2.803294709 -s 3 -d -1 -p AODV -e 48 -c 2 -a 0 -i 0 -k RTR
+ -t 2.805497665 -s 4 -d 20 -p cbr -e 1020 -c 2 -a 0 -i 0 -k RTR 
- -t 2.805497665 -s 4 -d 20 -p cbr -e 1020 -c 2 -a 0 -i 0 -k RTR
h -t 2.805497665 -s 4 -d 20 -p cbr -e 1020 -c 2 -a 0 -i 0 -k RTR
+ -t 2.807337393 -s 23 -d -1 -p AODV -e 48 -c 2 -a 0 -i 0 -k RTR 
- -t 2.807337393 -s 23 -d -1 -p AODV -e 48 -c 2 -a 0 -i 0 -k RTR
h -t 2.807337393 -s 23 -d -1 -p AODV -e 48 -c 2 -a 0 -i 0 -k RTR
+ -t 2.809112961 -s 24 -d -1 -p AODV -e 48 -c 2 -a 0 -i 0 -k RTR 
- -t 2.809112961 -s 24 -d -1 -p AODV -e 48 -c 2 -a 0 -i 0 -k RTR
h -t 2.809112961 -s 24 -d -1 -p AODV -e 48 -c 2 -a 0 -i 0 -k RTR
+ -t 2.815497665 -s 4 -d 20 -p cbr -e 1020 -c 2 -a 0 -i 1 -k RTR 
- -t 2.815497665 -s 4 -d 20 -p cbr -e 1020 -c 2 -a 0 -i 1 -k RTR
h -t 2.815497665 -s 4 -d 20 -p cbr -e 1020 -c 2 -a 0 -i 1 -k RTR
r -t 2.815524164 -s 20 -d 20 -p cbr -e 1020 -c 2 -a 0 -i 0 -k AGT
r -t 2.816756763 -s 23 -d -1 -p AODV -e 48 -c 2 -a 0 -i 0 -k RTR
r -t 2.816757104 -s 22 -d -1 -p AODV -e 48 -c 2 -a 0 -i 0 -k RTR
r -t 2.816757143 -s 14 -d -1 -p AODV -e 48 -c 2 -a 0 -i 0 -k RTR
r -t 2.816757259 -s 20 -d -1 -p AODV -e 48 -c 2 -a 0 -i 0 -k RTR
r -t 2.816757402 -s 4 -d -1 -p AODV -e 48 -c 2 -a 0 -i 0 -k RTR
r -t 2.816757492 -s 5 -d -1 -p AODV -e 48 -c 2 -a 0 -i 0 -k RTR
r -t 2.816757505 -s 21 -d -1 -p AODV -e 48 -c 2 -a 0 -i 0 -k RTR
r -t 2.816757545 -s 1 -d -1 -p AODV -e 48 -c 2 -a 0 -i 0 -k RTR
r -t 2.817794814 -s 3 -d -1 -p AODV -e 48 -c 2 -a 0 -i 0 -k RTR
r -t 2.817795105 -s 22 -d -1 -p AODV -e 48 -c 2 -a 0 -i 0 -k RTR
r -t 2.817795207 -s 14 -d -1 -p AODV -e 48 -c 2 -a 0 -i 0 -k RTR
r -t 2.817795301 -s 20 -d -1 -p AODV -e 48 -c 2 -a 0 -i 0 -k RTR
r -t 2.817795500 -s 5 -d -1 -p AODV -e 48 -c 2 -a 0 -i 0 -k RTR
r -t 2.817795501 -s 4 -d -1 -p AODV -e 48 -c 2 -a 0 -i 0 -k RTR
r -t 2.817795508 -s 21 -d -1 -p AODV -e 48 -c 2 -a 0 -i 0 -k RTR
r -t 2.817795546 -s 1 -d -1 -p AODV -e 48 -c 2 -a 0 -i 0 -k RTR
r -t 2.817795576 -s 9 -d -1 -p AODV -e 48 -c 2 -a 0 -i 0 -k RTR
+ -t 2.819338022 -s 14 -d -1 -p AODV -e 48 -c 2 -a 0 -i 0 -k RTR 
- -t 2.819338022 -s 14 -d -1 -p AODV -e 48 -c 2 -a 0 -i 0 -k RTR
h -t 2.819338022 -s 14 -d -1 -p AODV -e 48 -c 2 -a 0 -i 0 -k RTR
+ -t 2.820244515 -s 22 -d -1 -p AODV -e 48 -c 2 -a 0 -i 0 -k RTR 
- -t 2.820244515 -s 22 -d -1 -p AODV -e 48 -c 2 -a 0 -i 0 -k RTR
h -t 2.820244515 -s 22 -d -1 -p AODV -e 48 -c 2 -a 0 -i 0 -k RTR
+ -t 2.820844349 -s 5 -d -1 -p AODV -e 48 -c 2 -a 0 -i 0 -k RTR 
- -t 2.820844349 -s 5 -d -1 -p AODV -e 48 -c 2 -a 0 -i 0 -k RTR
h -t 2.820844349 -s 5 -d -1 -p AODV -e 48 -c 2 -a 0 -i 0 -k RTR
+ -t 2.821418704 -s 1 -d -1 -p AODV -e 48 -c 2 -a 0 -i 0 -k RTR 
- -t 2.821418704 -s 1 -d -1 -p AODV -e 48 -c 2 -a 0 -i 0 -k RTR
h -t 2.821418704 -s 1 -d -1 -p AODV -e 48 -c 2 -a 0 -i 0 -k RTR
+ -t 2.821943993 -s 21 -d -1 -p AODV -e 48 -c 2 -a 0 -i 0 -k RTR 
- -t 2.821943993 -s 21 -d -1 -p AODV -e 48 -c 2 -a 0 -i 0 -k RTR
h -t 2.821943993 -s 21 -d -1 -p AODV -e 48 -c 2 -a 0 -i 0 -k RTR
+ -t 2.825497665 -s 4 -d 20 -p cbr -e 1020 -c 2 -a 0 -i 2 -k RTR 
- -t 2.825497665 -s 4 -d 20 -p cbr -e 1020 -c 2 -a 0 -i 2 -k RTR
h -t 2.825497665 -s 4 -d 20 -p cbr -e 1020 -c 2 -a 0 -i 2 -k RTR
+ -t 2.826416249 -s 9 -d -1 -p AODV -e 48 -c 2 -a 0 -i 0 -k RTR 
- -t 2.826416249 -s 9 -d -1 -p AODV -e 48 -c 2 -a 0 -i 0 -k RTR
h -t 2.826416249 -s 9 -d -1 -p AODV -e 48 -c 2 -a 0 -i 0 -k RTR
r -t 2.827327998 -s 20 -d 20 -p cbr -e 1020 -c 2 -a 0 -i 1 -k AGT
+ -t 2.835497665 -s 4 -d 20 -p cbr -e 1020 -c 2 -a 0 -i 3 -k RTR 
- -t 2.835497665 -s 4 -d 20 -p cbr -e 1020 -c 2 -a 0 -i 3 -k RTR
h -t 2.835497665 -s 4 -d 20 -p cbr -e 1020 -c 2 -a 0 -i 3 -k RTR
r -t 2.837135326 -s 20 -d 20 -p cbr -e 1020 -c 2 -a 0 -i 2 -k AGT
+ -t 2.845497665 -s 4 -d 20 -p cbr -e 1020 -c 2 -a 0 -i 4 -k RTR 
- -t 2.845497665 -s 4 -d 20 -p cbr -e 1020 -c 2 -a 0 -i 4 -k RTR
h -t 2.845497665 -s 4 -d 20 -p cbr -e 1020 -c 2 -a 0 -i 4 -k RTR
r -t 2.846882651 -s 20 -d 20 -p cbr -e 1020 -c 2 -a 0 -i 3 -k AGT
+ -t 2.855497665 -s 4 -d 20 -p cbr -e 1020 -c 2 -a 0 -i 5 -k RTR 
- -t 2.855497665 -s 4 -d 20 -p cbr -e 1020 -c 2 -a 0 -i 5 -k RTR
h -t 2.855497665 -s 4 -d 20 -p cbr -e 1020 -c 2 -a 0 -i 5 -k RTR
r -t 2.856829974 -s 20 -d 20 -p cbr -e 1020 -c 2 -a 0 -i 4 -k AGT
r -t 2.859435405 -s 13 -d -1 -p AODV -e 48 -c 2 -a 0 -i 0 -k RTR
r -t 2.859435415 -s 21 -d -1 -p AODV -e 48 -c 2 -a 0 -i 0 -k RTR
r -t 2.859435545 -s 15 -d -1 -p AODV -e 48 -c 2 -a 0 -i 0 -k RTR
r -t 2.859435618 -s 17 -d -1 -p AODV -e 48 -c 2 -a 0 -i 0 -k RTR
r -t 2.859435685 -s 22 -d -1 -p AODV -e 48 -c 2 -a 0 -i 0 -k RTR
r -t 2.859435787 -s 5 -d -1 -p AODV -e 48 -c 2 -a 0 -i 0 -k RTR
r -t 2.859435909 -s 11 -d -1 -p AODV -e 48 -c 2 -a 0 -i 0 -k RTR
r -t 2.859436028 -s 23 -d -1 -p AODV -e 48 -c 2 -a 0 -i 0 -k RTR
+ -t 2.859543992 -s 11 -d -1 -p AODV -e 48 -c 2 -a 0 -i 0 -k RTR 
- -t 2.859543992 -s 11 -d -1 -p AODV -e 48 -c 2 -a 0 -i 0 -k RTR
h -t 2.859543992 -s 11 -d -1 -p AODV -e 48 -c 2 -a 0 -i 0 -k RTR
+ -t 2.860019644 -s 17 -d -1 -p AODV -e 48 -c 2 -a 0 -i 0 -k RTR 
- -t 2.860019644 -s 17 -d -1 -p AODV -e 48 -c 2 -a 0 -i 0 -k RTR
h -t 2.860019644 -s 17 -d -1 -p AODV -e 48 -c 2 -a 0 -i 0 -k RTR
r -t 2.860474031 -s 23 -d -1 -p AODV -e 48 -c 2 -a 0 -i 0 -k RTR
r -t 2.860474079 -s 3 -d -1 -p AODV -e 48 -c 2 -a 0 -i 0 -k RTR
r -t 2.860474117 -s 21 -d -1 -p AODV -e 48 -c 2 -a 0 -i 0 -k RTR
r -t 2.860474130 -s 1 -d -1 -p AODV -e 48 -c 2 -a 0 -i 0 -k RTR
r -t 2.860474184 -s 5 -d -1 -p AODV -e 48 -c 2 -a 0 -i 0 -k RTR
r -t 2.860474261 -s 13 -d -1 -p AODV -e 48 -c 2 -a 0 -i 0 -k RTR
r -t 2.860474294 -s 20 -d -1 -p AODV -e 48 -c 2 -a 0 -i 0 -k RTR
r -t 2.860474306 -s 14 -d -1 -p AODV -e 48 -c 2 -a 0 -i 0 -k RTR
r -t 2.860474382 -s 9 -d -1 -p AODV -e 48 -c 2 -a 0 -i 0 -k RTR
r -t 2.860474388 -s 11 -d -1 -p AODV -e 48 -c 2 -a 0 -i 0 -k RTR
r -t 2.860474413 -s 15 -d -1 -p AODV -e 48 -c 2 -a 0 -i 0 -k RTR
r -t 2.860474488 -s 17 -d -1 -p AODV -e 48 -c 2 -a 0 -i 0 -k RTR
+ -t 2.860555858 -s 15 -d -1 -p AODV -e 48 -c 2 -a 0 -i 0 -k RTR 
- -t 2.860555858 -s 15 -d -1 -p AODV -e 48 -c 2 -a 0 -i 0 -k RTR
h -t 2.860555858 -s 15 -d -1 -p AODV -e 48 -c 2 -a 0 -i 0 -k RTR
r -t 2.861492292 -s 1 -d -1 -p AODV -e 48 -c 2 -a 0 -i 0 -k RTR
r -t 2.861492292 -s 13 -d -1 -p AODV -e 48 -c 2 -a 0 -i 0 -k RTR
r -t 2.861492433 -s 15 -d -1 -p AODV -e 48 -c 2 -a 0 -i 0 -k RTR
r -t 2.861492548 -s 22 -d -1 -p AODV -e 48 -c 2 -a 0 -i 0 -k RTR
r -t 2.861492628 -s 17 -d -1 -p AODV -e 48 -c 2 -a 0 -i 0 -k RTR
r -t 2.861492797 -s 5 -d -1 -p AODV -e 48 -c 2 -a 0 -i 0 -k RTR
r -t 2.861492861 -s 18 -d -1 -p AODV -e 48 -c 2 -a 0 -i 0 -k RTR
r -t 2.861492862 -s 23 -d -1 -p AODV -e 48 -c 2 -a 0 -i 0 -k RTR
r -t 2.861492908 -s 3 -d -1 -p AODV -e 48 -c 2 -a 0 -i 0 -k RTR
r -t 2.861492942 -s 11 -d -1 -p AODV -e 48 -c 2 -a 0 -i 0 -k RTR
r -t 2.862570586 -s 13 -d -1 -p AODV -e 48 -c 2 -a 0 -i 0 -k RTR
r -t 2.862570739 -s 1 -d -1 -p AODV -e 48 -c 2 -a 0 -i 0 -k RTR
r -t 2.862570750 -s 21 -d -1 -p AODV -e 48 -c 2 -a 0 -i 0 -k RTR
r -t 2.862570752 -s 17 -d -1 -p AODV -e 48 -c 2 -a 0 -i 0 -k RTR
r -t 2.862571129 -s 2 -d -1 -p AODV -e 48 -c 2 -a 0 -i 0 -k RTR
r -t 2.862571214 -s 0 -d -1 -p AODV -e 48 -c 2 -a 0 -i 0 -k RTR
r -t 2.862571259 -s 5 -d -1 -p AODV -e 48 -c 2 -a 0 -i 0 -k RTR
r -t 2.863669072 -s 15 -d -1 -p AODV -e 48 -c 2 -a 0 -i 0 -k RTR
r -t 2.863669108 -s 13 -d -1 -p AODV -e 48 -c 2 -a 0 -i 0 -k RTR
r -t 2.863669131 -s 1 -d -1 -p AODV -e 48 -c 2 -a 0 -i 0 -k RTR
r -t 2.863669263 -s 21 -d -1 -p AODV -e 48 -c 2 -a 0 -i 0 -k RTR
r -t 2.863669445 -s 5 -d -1 -p AODV -e 48 -c 2 -a 0 -i 0 -k RTR
r -t 2.863669457 -s 11 -d -1 -p AODV -e 48 -c 2 -a 0 -i 0 -k RTR
+ -t 2.865189456 -s 0 -d -1 -p AODV -e 48 -c 2 -a 0 -i 0 -k RTR 
- -t 2.865189456 -s 0 -d -1 -p AODV -e 48 -c 2 -a 0 -i 0 -k RTR
h -t 2.865189456 -s 0 -d -1 -p AODV -e 48 -c 2 -a 0 -i 0 -k RTR
+ -t 2.865497665 -s 4 -d 20 -p cbr -e 1020 -c 2 -a 0 -i 6 -k RTR 
- -t 2.865497665 -s 4 -d 20 -p cbr -e 1020 -c 2 -a 0 -i 6 -k RTR
h -t 2.865497665 -s 4 -d 20 -p cbr -e 1020 -c 2 -a 0 -i 6 -k RTR
r -t 2.866217819 -s 2 -d -1 -p AODV -e 48 -c 2 -a 0 -i 0 -k RTR
r -t 2.866218240 -s 10 -d -1 -p AODV -e 48 -c 2 -a 0 -i 0 -k RTR
+ -t 2.868080383 -s 10 -d -1 -p AODV -e 48 -c 2 -a 0 -i 0 -k RTR 
- -t 2.868080383 -s 10 -d -1 -p AODV -e 48 -c 2 -a 0 -i 0 -k RTR
h -t 2.868080383 -s 10 -d -1 -p AODV -e 48 -c 2 -a 0 -i 0 -k RTR
+ -t 2.868348883 -s 13 -d -1 -p AODV -e 48 -c 2 -a 0 -i 0 -k RTR 
- -t 2.868348883 -s 13 -d -1 -p AODV -e 48 -c 2 -a 0 -i 0 -k RTR
h -t 2.868348883 -s 13 -d -1 -p AODV -e 48 -c 2 -a 0 -i 0 -k RTR
+ -t 2.868479593 -s 18 -d -1 -p AODV -e 48 -c 2 -a 0 -i 0 -k RTR 
- -t 2.868479593 -s 18 -d -1 -p AODV -e 48 -c 2 -a 0 -i 0 -k RTR
h -t 2.868479593 -s 18 -d -1 -p AODV -e 48 -c 2 -a 0 -i 0 -k RTR
r -t 2.869268524 -s 7 -d -1 -p AODV -e 48 -c 2 -a 0 -i 0 -k RTR
r -t 2.869268838 -s 8 -d -1 -p AODV -e 48 -c 2 -a 0 -i 0 -k RTR
r -t 2.869268906 -s 6 -d -1 -p AODV -e 48 -c 2 -a 0 -i 0 -k RTR
r -t 2.869269167 -s 0 -d -1 -p AODV -e 48 -c 2 -a 0 -i 0 -k RTR
+ -t 2.871056116 -s 8 -d -1 -p AODV -e 48 -c 2 -a 0 -i 0 -k RTR 
- -t 2.871056116 -s 8 -d -1 -p AODV -e 48 -c 2 -a 0 -i 0 -k RTR
h -t 2.871056116 -s 8 -d -1 -p AODV -e 48 -c 2 -a 0 -i 0 -k RTR
+ -t 2.871337686 -s 2 -d -1 -p AODV -e 48 -c 2 -a 0 -i 0 -k RTR 
- -t 2.871337686 -s 2 -d -1 -p AODV -e 48 -c 2 -a 0 -i 0 -k RTR
h -t 2.871337686 -s 2 -d -1 -p AODV -e 48 -c 2 -a 0 -i 0 -k RTR
r -t 2.872304324 -s 6 -d -1 -p AODV -e 48 -c 2 -a 0 -i 0 -k RTR
r -t 2.872304571 -s 10 -d -1 -p AODV -e 48 -c 2 -a 0 -i 0 -k RTR
r -t 2.872304572 -s 7 -d -1 -p AODV -e 48 -c 2 -a 0 -i 0 -k RTR
r -t 2.872992422 -s 20 -d 20 -p cbr -e 1020 -c 2 -a 0 -i 5 -k AGT
r -t 2.873608045 -s 0 -d -1 -p AODV -e 48 -c 2 -a 0 -i 0 -k RTR
+ -t 2.875497665 -s 4 -d 20 -p cbr -e 1020 -c 2 -a 0 -i 7 -k RTR 
- -t 2.875497665 -s 4 -d 20 -p cbr -e 1020 -c 2 -a 0 -i 7 -k RTR
h -t 2.875497665 -s 4 -d 20 -p cbr -e 1020 -c 2 -a 0 -i 7 -k RTR
+ -t 2.876217896 -s 7 -d -1 -p AODV -e 48 -c 2 -a 0 -i 0 -k RTR 
- -t 2.876217896 -s 7 -d -1 -p AODV -e 48 -c 2 -a 0 -i 0 -k RTR
h -t 2.876217896 -s 7 -d -1 -p AODV -e 48 -c 2 -a 0 -i 0 -k RTR
r -t 2.877266037 -s 10 -d -1 -p AODV -e 48 -c 2 -a 0 -i 0 -k RTR
r -t 2.877266352 -s 8 -d -1 -p AODV -e 48 -c 2 -a 0 -i 0 -k RTR
r -t 2.877266473 -s 6 -d -1 -p AODV -e 48 -c 2 -a 0 -i 0 -k RTR
+ -t 2.879028973 -s 6 -d -1 -p AODV -e 48 -c 2 -a 0 -i 0 -k RTR 
- -t 2.879028973 -s 6 -d -1 -p AODV -e 48 -c 2 -a 0 -i 0 -k RTR
h -t 2.879028973 -s 6 -d -1 -p AODV -e 48 -c 2 -a 0 -i 0 -k RTR
r -t 2.880237184 -s 8 -d -1 -p AODV -e 48 -c 2 -a 0 -i 0 -k RTR
r -t 2.880237497 -s 10 -d -1 -p AODV -e 48 -c 2 -a 0 -i 0 -k RTR
r -t 2.880237550 -s 7 -d -1 -p AODV -e 48 -c 2 -a 0 -i 0 -k RTR
r -t 2.882779740 -s 20 -d 20 -p cbr -e 1020 -c 2 -a 0 -i 6 -k AGT
+ -t 2.885497665 -s 4 -d 20 -p cbr -e 1020 -c 2 -a 0 -i 8 -k RTR 
- -t 2.885497665 -s 4 -d 20 -p cbr -e 1020 -c 2 -a 0 -i 8 -k RTR
h -t 2.885497665 -s 4 -d 20 -p cbr -e 1020 -c 2 -a 0 -i 8 -k RTR
r -t 2.892507056 -s 20 -d 20 -p cbr -e 1020 -c 2 -a 0 -i 7 -k AGT
r -t 2.893809939 -s 5 -d -1 -p AODV -e 48 -c 2 -a 0 -i 0 -k RTR
r -t 2.893810054 -s 9 -d -1 -p AODV -e 48 -c 2 -a 0 -i 0 -k RTR
r -t 2.893810399 -s 1 -d -1 -p AODV -e 48 -c 2 -a 0 -i 0 -k RTR
r -t 2.893810419 -s 20 -d -1 -p AODV -e 48 -c 2 -a 0 -i 0 -k RTR
r -t 2.893810435 -s 17 -d -1 -p AODV -e 48 -c 2 -a 0 -i 0 -k RTR
r -t 2.893810435 -s 22 -d -1 -p AODV -e 48 -c 2 -a 0 -i 0 -k RTR
r -t 2.893810549 -s 13 -d -1 -p AODV -e 48 -c 2 -a 0 -i 0 -k RTR
r -t 2.893810551 -s 21 -d -1 -p AODV -e 48 -c 2 -a 0 -i 0 -k RTR
r -t 2.895008706 -s 15 -d -1 -p AODV -e 48 -c 2 -a 0 -i 0 -k RTR
r -t 2.895008717 -s 1 -d -1 -p AODV -e 48 -c 2 -a 0 -i 0 -k RTR
r -t 2.895008724 -s 21 -d -1 -p AODV -e 48 -c 2 -a 0 -i 0 -k RTR
r -t 2.895008909 -s 17 -d -1 -p AODV -e 48 -c 2 -a 0 -i 0 -k RTR
r -t 2.895009123 -s 22 -d -1 -p AODV -e 48 -c 2 -a 0 -i 0 -k RTR
r -t 2.895009258 -s 5 -d -1 -p AODV -e 48 -c 2 -a 0 -i 0 -k RTR
r -t 2.895009372 -s 11 -d -1 -p AODV -e 48 -c 2 -a 0 -i 0 -k RTR
+ -t 2.895497665 -s 4 -d 20 -p cbr -e 1020 -c 2 -a 0 -i 9 -k RTR 
- -t 2.895497665 -s 4 -d 20 -p cbr -e 1020 -c 2 -a 0 -i 9 -k RTR
h -t 2.895497665 -s 4 -d 20 -p cbr -e 1020 -c 2 -a 0 -i 9 -k RTR
r -t 2.896511983 -s 3 -d -1 -p AODV -e 48 -c 2 -a 0 -i 0 -k RTR
r -t 2.896511984 -s 23 -d -1 -p AODV -e 48 -c 2 -a 0 -i 0 -k RTR
r -t 2.896512156 -s 16 -d -1 -p AODV -e 48 -c 2 -a 0 -i 0 -k RTR
r -t 2.896512162 -s 18 -d -1 -p AODV -e 48 -c 2 -a 0 -i 0 -k RTR
r -t 2.896512166 -s 22 -d -1 -p AODV -e 48 -c 2 -a 0 -i 0 -k RTR
r -t 2.896512274 -s 12 -d -1 -p AODV -e 48 -c 2 -a 0 -i 0 -k RTR
r -t 2.896512275 -s 19 -d -1 -p AODV -e 48 -c 2 -a 0 -i 0 -k RTR
r -t 2.896512382 -s 21 -d -1 -p AODV -e 48 -c 2 -a 0 -i 0 -k RTR
r -t 2.897450684 -s 16 -d -1 -p AODV -e 48 -c 2 -a 0 -i 0 -k RTR
r -t 2.897450703 -s 19 -d -1 -p AODV -e 48 -c 2 -a 0 -i 0 -k RTR
r -t 2.897450762 -s 6 -d -1 -p AODV -e 48 -c 2 -a 0 -i 0 -k RTR
r -t 2.897450772 -s 14 -d -1 -p AODV -e 48 -c 2 -a 0 -i 0 -k RTR
r -t 2.897450830 -s 12 -d -1 -p AODV -e 48 -c 2 -a 0 -i 0 -k RTR
r -t 2.897450913 -s 21 -d -1 -p AODV -e 48 -c 2 -a 0 -i 0 -k RTR
r -t 2.897450927 -s 10 -d -1 -p AODV -e 48 -c 2 -a 0 -i 0 -k RTR
r -t 2.897450948 -s 8 -d -1 -p AODV -e 48 -c 2 -a 0 -i 0 -k RTR
+ -t 2.900000000 -s 4 -d -1 -p cbr -e 1000 -c 2 -a 0 -i 19 -k AGT 
- -t 2.900000000 -s 4 -d -1 -p cbr -e 1000 -c 2 -a 0 -i 19 -k AGT
h -t 2.900000000 -s 4 -d -1 -p cbr -e 1000 -c 2 -a 0 -i 19 -k AGT
+ -t 2.900000000 -s 4 -d 20 -p cbr -e 1020 -c 2 -a 0 -i 19 -k RTR 
- -t 2.900000000 -s 4 -d 20 -p cbr -e 1020 -c 2 -a 0 -i 19 -k RTR
h -t 2.900000000 -s 4 -d 20 -p cbr -e 1020 -c 2 -a 0 -i 19 -k RTR
+ -t 2.900072860 -s 12 -d -1 -p AODV -e 48 -c 2 -a 0 -i 0 -k RTR 
- -t 2.900072860 -s 12 -d -1 -p AODV -e 48 -c 2 -a 0 -i 0 -k RTR
h -t 2.900072860 -s 12 -d -1 -p AODV -e 48 -c 2 -a 0 -i 0 -k RTR
+ -t 2.902096361 -s 19 -d -1 -p AODV -e 48 -c 2 -a 0 -i 0 -k RTR 
- -t 2.902096361 -s 19 -d -1 -p AODV -e 48 -c 2 -a 0 -i 0 -k RTR
h -t 2.902096361 -s 19 -d -1 -p AODV -e 48 -c 2 -a 0 -i 0 -k RTR
+ -t 2.904532275 -s 16 -d -1 -p AODV -e 48 -c 2 -a 0 -i 0 -k RTR 
- -t 2.904532275 -s 16 -d -1 -p AODV -e 48 -c 2 -a 0 -i 0 -k RTR
h -t 2.904532275 -s 16 -d -1 -p AODV -e 48 -c 2 -a 0 -i 0 -k RTR
+ -t 2.905497665 -s 4 -d 20 -p cbr -e 1020 -c 2 -a 0 -i 10 -k RTR 
- -t 2.905497665 -s 4 -d 20 -p cbr -e 1020 -c 2 -a 0 -i 10 -k RTR
h -t 2.905497665 -s 4 -d 20 -p cbr -e 1020 -c 2 -a 0 -i 10 -k RTR
r -t 2.907188106 -s 20 -d 20 -p cbr -e 1020 -c 2 -a 0 -i 8 -k AGT
+ -t 2.915497665 -s 4 -d 20 -p cbr -e 1020 -c 2 -a 0 -i 11 -k RTR 
- -t 2.915497665 -s 4 -d 20 -p cbr -e 1020 -c 2 -a 0 -i 11 -k RTR
h -t 2.915497665 -s 4 -d 20 -p cbr -e 1020 -c 2 -a 0 -i 11 -k RTR
r -t 2.917155416 -s 20 -d 20 -p cbr -e 1020 -c 2 -a 0 -i 9 -k AGT
+ -t 2.925497665 -s 4 -d 20 -p cbr -e 1020 -c 2 -a 0 -i 12 -k RTR 
- -t 2.925497665 -s 4 -d 20 -p cbr -e 1020 -c 2 -a 0 -i 12 -k RTR
h -t 2.925497665 -s 4 -d 20 -p cbr -e 1020 -c 2 -a 0 -i 12 -k RTR
r -t 2.927162725 -s 20 -d 20 -p cbr -e 1020 -c 2 -a 0 -i 19 -k AGT
+ -t 2.935497665 -s 4 -d 20 -p cbr -e 1020 -c 2 -a 0 -i 13 -k RTR 
- -t 2.935497665 -s 4 -d 20 -p cbr -e 1020 -c 2 -a 0 -i 13 -k RTR
h -t 2.935497665 -s 4 -d 20 -p cbr -e 1020 -c 2 -a 0 -i 13 -k RTR
r -t 2.936870031 -s 20 -d 20 -p cbr -e 1020 -c 2 -a 0 -i 10 -k AGT
+ -t 2.945497665 -s 4 -d 20 -p cbr -e 1020 -c 2 -a 0 -i 14 -k RTR 
- -t 2.945497665 -s 4 -d 20 -p cbr -e 1020 -c 2 -a 0 -i 14 -k RTR
h -t 2.945497665 -s 4 -d 20 -p cbr -e 1020 -c 2 -a 0 -i 14 -k RTR
r -t 2.947117335 -s 20 -d 20 -p cbr -e 1020 -c 2 -a 0 -i 11 -k AGT
+ -t 2.955497665 -s 4 -d 20 -p cbr -e 1020 -c 2 -a 0 -i 15 -k RTR 
- -t 2.955497665 -s 4 -d 20 -p cbr -e 1020 -c 2 -a 0 -i 15 -k RTR
h -t 2.955497665 -s 4 -d 20 -p cbr -e 1020 -c 2 -a 0 -i 15 -k RTR
r -t 2.957004638 -s 20 -d 20 -p cbr -e 1020 -c 2 -a 0 -i 12 -k AGT
+ -t 2.965497665 -s 4 -d 20 -p cbr -e 1020 -c 2 -a 0 -i 16 -k RTR 
- -t 2.965497665 -s 4 -d 20 -p cbr -e 1020 -c 2 -a 0 -i 16 -k RTR
h -t 2.965497665 -s 4 -d 20 -p cbr -e 1020 -c 2 -a 0 -i 16 -k RTR
r -t 2.966851938 -s 20 -d 20 -p cbr -e 1020 -c 2 -a 0 -i 13 -k AGT
+ -t 2.975497665 -s 4 -d 20 -p cbr -e 1020 -c 2 -a 0 -i 17 -k RTR 
- -t 2.975497665 -s 4 -d 20 -p cbr -e 1020 -c 2 -a 0 -i 17 -k RTR
h -t 2.975497665 -s 4 -d 20 -p cbr -e 1020 -c 2 -a 0 -i 17 -k RTR
r -t 2.976679236 -s 20 -d 20 -p cbr -e 1020 -c 2 -a 0 -i 14 -k AGT
+ -t 2.985497665 -s 4 -d 20 -p cbr -e 1020 -c 2 -a 0 -i 18 -k RTR 
- -t 2.985497665 -s 4 -d 20 -p cbr -e 1020 -c 2 -a 0 -i 18 -k RTR
h -t 2.985497665 -s 4 -d 20 -p cbr -e 1020 -c 2 -a 0 -i 18 -k RTR
r -t 2.986786532 -s 20 -d 20 -p cbr -e 1020 -c 2 -a 0 -i 15 -k AGT
r -t 2.996853826 -s 20 -d 20 -p cbr -e 1020 -c 2 -a 0 -i 16 -k AGT
+ -t 3.000000000 -s 4 -d -1 -p cbr -e 1000 -c 2 -a 0 -i 20 -k AGT 
- -t 3.000000000 -s 4 -d -1 -p cbr -e 1000 -c 2 -a 0 -i 20 -k AGT
h -t 3.000000000 -s 4 -d -1 -p cbr -e 1000 -c 2 -a 0 -i 20 -k AGT
+ -t 3.000000000 -s 4 -d 20 -p cbr -e 1020 -c 2 -a 0 -i 20 -k RTR 
- -t 3.000000000 -s 4 -d 20 -p cbr -e 1020 -c 2 -a 0 -i 20 -k RTR
h -t 3.000000000 -s 4 -d 20 -p cbr -e 1020 -c 2 -a 0 -i 20 -k RTR
r -t 3.006641117 -s 20 -d 20 -p cbr -e 1020 -c 2 -a 0 -i 17 -k AGT
r -t 3.016468407 -s 20 -d 20 -p cbr -e 1020 -c 2 -a 0 -i 18 -k AGT
r -t 3.026355695 -s 20 -d 20 -p cbr -e 1020 -c 2 -a 0 -i 20 -k AGT
r -t 3.029455599 -s 19 -d -1 -p AODV -e 48 -c 2 -a 0 -i 0 -k RTR
r -t 3.029455623 -s 16 -d -1 -p AODV -e 48 -c 2 -a 0 -i 0 -k RTR
r -t 3.029456060 -s 6 -d -1 -p AODV -e 48 -c 2 -a 0 -i 0 -k RTR
r -t 3.029456111 -s 18 -d -1 -p AODV -e 48 -c 2 -a 0 -i 0 -k RTR
r -t 3.029456213 -s 14 -d -1 -p AODV -e 48 -c 2 -a 0 -i 0 -k RTR
r -t 3.029456280 -s 8 -d -1 -p AODV -e 48 -c 2 -a 0 -i 0 -k RTR
+ -t 3.100000000 -s 4 -d -1 -p cbr -e 1000 -c 2 -a 0 -i 21 -k AGT 
- -t 3.100000000 -s 4 -d -1 -p cbr -e 1000 -c 2 -a 0 -i 21 -k AGT
h -t 3.100000000 -s 4 -d -1 -p cbr -e 1000 -c 2 -a 0 -i 21 -k AGT
+ -t 3.100000000 -s 4 -d 20 -p cbr -e 1020 -c 2 -a 0 -i 21 -k RTR 
- -t 3.100000000 -s 4 -d 20 -p cbr -e 1020 -c 2 -a 0 -i 21 -k RTR
h -t 3.100000000 -s 4 -d 20 -p cbr -e 1020 -c 2 -a 0 -i 21 -k RTR
r -t 3.109822453 -s 20 -d 20 -p cbr -e 1020 -c 2 -a 0 -i 21 -k AGT
+ -t 3.200000000 -s 4 -d -1 -p cbr -e 1000 -c 2 -a 0 -i 22 -k AGT 
- -t 3.200000000 -s 4 -d -1 -p cbr -e 1000 -c 2 -a 0 -i 22 -k AGT
h -t 3.200000000 -s 4 -d -1 -p cbr -e 1000 -c 2 -a 0 -i 22 -k AGT
+ -t 3.200000000 -s 4 -d 20 -p cbr -e 1020 -c 2 -a 0 -i 22 -k RTR 
- -t 3.200000000 -s 4 -d 20 -p cbr -e 1020 -c 2 -a 0 -i 22 -k RTR
h -t 3.200000000 -s 4 -d 20 -p cbr -e 1020 -c 2 -a 0 -i 22 -k RTR
r -t 3.209722437 -s 20 -d 20 -p cbr -e 1020 -c 2 -a 0 -i 22 -k AGT
+ -t 3.300000000 -s 4 -d -1 -p cbr -e 1000 -c 2 -a 0 -i 23 -k AGT 
- -t 3.300000000 -s 4 -d -1 -p cbr -e 1000 -c 2 -a 0 -i 23 -k AGT
h -t 3.300000000 -s 4 -d -1 -p cbr -e 1000 -c 2 -a 0 -i 23 -k AGT
+ -t 3.300000000 -s 4 -d 20 -p cbr -e 1020 -c 2 -a 0 -i 23 -k RTR 
- -t 3.300000000 -s 4 -d 20 -p cbr -e 1020 -c 2 -a 0 -i 23 -k RTR
h -t 3.300000000 -s 4 -d 20 -p cbr -e 1020 -c 2 -a 0 -i 23 -k RTR
r -t 3.309422422 -s 20 -d 20 -p cbr -e 1020 -c 2 -a 0 -i 23 -k AGT
+ -t 3.400000000 -s 4 -d -1 -p cbr -e 1000 -c 2 -a 0 -i 24 -k AGT 
- -t 3.400000000 -s 4 -d -1 -p cbr -e 1000 -c 2 -a 0 -i 24 -k AGT
h -t 3.400000000 -s 4 -d -1 -p cbr -e 1000 -c 2 -a 0 -i 24 -k AGT
+ -t 3.400000000 -s 4 -d 20 -p cbr -e 1020 -c 2 -a 0 -i 24 -k RTR 
- -t 3.400000000 -s 4 -d 20 -p cbr -e 1020 -c 2 -a 0 -i 24 -k RTR
h -t 3.400000000 -s 4 -d 20 -p cbr -e 1020 -c 2 -a 0 -i 24 -k RTR
r -t 3.409502406 -s 20 -d 20 -p cbr -e 1020 -c 2 -a 0 -i 24 -k AGT
+ -t 3.500000000 -s 4 -d -1 -p cbr -e 1000 -c 2 -a 0 -i 25 -k AGT 
- -t 3.500000000 -s 4 -d -1 -p cbr -e 1000 -c 2 -a 0 -i 25 -k AGT
h -t 3.500000000 -s 4 -d -1 -p cbr -e 1000 -c 2 -a 0 -i 25 -k AGT
+ -t 3.500000000 -s 4 -d 20 -p cbr -e 1020 -c 2 -a 0 -i 25 -k RTR 
- -t 3.500000000 -s 4 -d 20 -p cbr -e 1020 -c 2 -a 0 -i 25 -k RTR
h -t 3.500000000 -s 4 -d 20 -p cbr -e 1020 -c 2 -a 0 -i 25 -k RTR
r -t 3.509462391 -s 20 -d 20 -p cbr -e 1020 -c 2 -a 0 -i 25 -k AGT
+ -t 3.600000000 -s 4 -d -1 -p cbr -e 1000 -c 2 -a 0 -i 26 -k AGT 
- -t 3.600000000 -s 4 -d -1 -p cbr -e 1000 -c 2 -a 0 -i 26 -k AGT
h -t 3.600000000 -s 4 -d -1 -p cbr -e 1000 -c 2 -a 0 -i 26 -k AGT
+ -t 3.600000000 -s 4 -d 20 -p cbr -e 1020 -c 2 -a 0 -i 26 -k RTR 