n -t * -s 0  -x 642.89942786232541 -y 168.5472656826243 -Z 0 -z 100  -v circle -c green
n -t * -s 1  -x 967.36790983349454 -y 441.96845723407739 -Z 0 -z 100  -v circle -c green
n -t * -s 2  -x 204.82591642291561 -y 407.34185595407234 -Z 0 -z 100  -v circle -c green
n -t * -s 3  -x 743.21627511792644 -y 188.74872559157606 -Z 0 -z 100  -v circle -c green
n -t * -s 4  -x 374.78877202365027 -y 59.913121191744281 -Z 0 -z 100  -v circle -c green
n -t * -s 5  -x 699.78483705771373 -y 227.00514319679007 -Z 0 -z 100  -v circle -c green
n -t * -s 6  -x 94.302135563596224 -y 748.79393388926701 -Z 0 -z 100  -v circle -c green
n -t * -s 7  -x 224.5585961381712 -y 125.06023539465862 -Z 0 -z 100  -v circle -c green
n -t * -s 8  -x 359.22034753450208 -y 333.10480990126024 -Z 0 -z 100  -v circle -c green
n -t * -s 9  -x 115.67501310057705 -y 119.95614511890157 -Z 0 -z 100  -v circle -c green
n -t * -s 10  -x 128.66376672343526 -y 361.54185662117874 -Z 0 -z 100  -v circle -c green
n -t * -s 11  -x 542.48029018867771 -y 372.98976088547602 -Z 0 -z 100  -v circle -c green
n -t * -s 12  -x 48.639002744405992 -y 380.57530018527774 -Z 0 -z 100  -v circle -c green
n -t * -s 13  -x 411.33776745355584 -y 283.08607353041231 -Z 0 -z 100  -v circle -c green
n -t * -s 14  -x 284.54728204968728 -y 308.93552727482074 -Z 0 -z 100  -v circle -c green
n -t * -s 15  -x 349.25863489008447 -y 791.90127811948821 -Z 0 -z 100  -v circle -c green
n -t * -s 16  -x 855.97669279946786 -y 320.22070452581193 -Z 0 -z 100  -v circle -c green
n -t * -s 17  -x 436.72620665129563 -y 45.884150660542844 -Z 0 -z 100  -v circle -c green
n -t * -s 18  -x 968.65018967941876 -y 82.990353593132625 -Z 0 -z 100  -v circle -c green
n -t * -s 19  -x 523.59104972499938 -y 795.8181824515658 -Z 0 -z 100  -v circle -c green
n -t * -s 20  -x 145.24057933373405 -y 46.733489654368483 -Z 0 -z 100  -v circle -c green
n -t * -s 21  -x 812.2007762138735 -y 526.7566612580589 -Z 0 -z 100  -v circle -c green
n -t * -s 22  -x 499.00720524555408 -y 651.27884962189887 -Z 0 -z 100  -v circle -c green
n -t * -s 23  -x 554.53199406831152 -y 15.379444889435288 -Z 0 -z 100  -v circle -c green
n -t * -s 24  -x 102.9128209235672 -y 524.62500991515117 -Z 0 -z 100  -v circle -c green
V -t * -v 1.0a5 -a 0
W -t * -x 1000 -y 800
A -t * -n 1 -p 0 -o 0x7fffffff -c 30 -a 1
A -t * -h 1 -m 1073741823 -s 0
c -t * -i 0 -n red
v -t 0.01 -e sim_annotation 0.01 1 Network Deployment
n -t 0.100000 -s 0 -x 642.899428 -y 168.547266 -U 18.568310 -V 35.429054 -T 3.919454
n -t 0.100000 -s 1 -x 967.367910 -y 441.968457 -U -39.582322 -V -5.765399 -T 16.972493
n -t 0.100000 -s 2 -x 204.825916 -y 407.341856 -U 39.701163 -V 4.880335 -T 5.711491
n -t 0.100000 -s 3 -x 743.216275 -y 188.748726 -U -39.515650 -V -6.205918 -T 10.181714
n -t 0.100000 -s 4 -x 374.788772 -y 59.913121 -U 28.183838 -V 28.384349 -T 18.541105
n -t 0.100000 -s 5 -x 699.784837 -y 227.005143 -U -28.981767 -V 27.569135 -T 19.799602
n -t 0.100000 -s 6 -x 94.302136 -y 748.793934 -U 39.663205 -V -5.179785 -T 19.964719
n -t 0.100000 -s 7 -x 224.558596 -y 125.060235 -U 38.714159 -V -10.060512 -T 10.931616
n -t 0.100000 -s 8 -x 359.220348 -y 333.104810 -U 36.081814 -V -17.265651 -T 14.049005
n -t 0.100000 -s 9 -x 115.675013 -y 119.956145 -U 2.573874 -V 39.917104 -T 3.101191
n -t 0.100000 -s 10 -x 128.663767 -y 361.541857 -U 39.886380 -V -3.012754 -T 17.168025
n -t 0.100000 -s 11 -x 542.480290 -y 372.989761 -U 28.025766 -V -28.540435 -T 12.979108
n -t 0.100000 -s 12 -x 48.639003 -y 380.575300 -U 35.902191 -V 17.636118 -T 20.653443
n -t 0.100000 -s 13 -x 411.337767 -y 283.086074 -U 38.926221 -V 9.205941 -T 9.376030
n -t 0.100000 -s 14 -x 284.547282 -y 308.935527 -U 33.430082 -V 21.964280 -T 11.183060
n -t 0.100000 -s 15 -x 349.258635 -y 791.901278 -U 23.934951 -V -32.048684 -T 13.961704
n -t 0.100000 -s 16 -x 855.976693 -y 320.220705 -U -39.990884 -V -0.853942 -T 11.360970
n -t 0.100000 -s 17 -x 436.726207 -y 45.884151 -U 38.856454 -V -9.496104 -T 4.664108
n -t 0.100000 -s 18 -x 968.650190 -y 82.990354 -U -23.855351 -V 32.107977 -T 20.776752
n -t 0.100000 -s 19 -x 523.591050 -y 795.818182 -U -3.929973 -V -39.806473 -T 18.832964
n -t 0.100000 -s 20 -x 145.240579 -y 46.733490 -U 38.803693 -V 9.709449 -T 7.450608
n -t 0.100000 -s 21 -x 812.200776 -y 526.756661 -U -32.999702 -V -22.605744 -T 6.053036
n -t 0.100000 -s 22 -x 499.007205 -y 651.278850 -U 34.205079 -V -20.736744 -T 8.823979
n -t 0.100000 -s 23 -x 554.531994 -y 15.379445 -U -21.038444 -V 34.020345 -T 9.207216
n -t 0.100000 -s 24 -x 102.912821 -y 524.625010 -U 36.279683 -V -16.845908 -T 17.283461
+ -t 1.000000000 -s 4 -d -1 -p cbr -e 1000 -c 2 -a 0 -i 0 -k AGT 
- -t 1.000000000 -s 4 -d -1 -p cbr -e 1000 -c 2 -a 0 -i 0 -k AGT
h -t 1.000000000 -s 4 -d -1 -p cbr -e 1000 -c 2 -a 0 -i 0 -k AGT
m -t 1 -s 4 -n m -c blue -h square
m -t 1 -s 20 -n m -c magenta -h square
n -t 1 -s 4 -S DLABEL -l "SENDER" -L ""
n -t 1 -s 20 -S DLABEL -l "RCV" -L ""
+ -t 1.000000000 -s 4 -d -1 -p AODV -e 48 -c 2 -a 0 -i 0 -k RTR 
- -t 1.000000000 -s 4 -d -1 -p AODV -e 48 -c 2 -a 0 -i 0 -k RTR
h -t 1.000000000 -s 4 -d -1 -p AODV -e 48 -c 2 -a 0 -i 0 -k RTR
r -t 1.001408287 -s 17 -d -1 -p AODV -e 48 -c 2 -a 0 -i 0 -k RTR
r -t 1.001408470 -s 23 -d -1 -p AODV -e 48 -c 2 -a 0 -i 0 -k RTR
r -t 1.001408480 -s 7 -d -1 -p AODV -e 48 -c 2 -a 0 -i 0 -k RTR
r -t 1.001408703 -s 13 -d -1 -p AODV -e 48 -c 2 -a 0 -i 0 -k RTR
r -t 1.001408740 -s 20 -d -1 -p AODV -e 48 -c 2 -a 0 -i 0 -k RTR
+ -t 1.001408740 -s 20 -d 4 -p AODV -e 44 -c 2 -a 0 -i 0 -k RTR 
- -t 1.001408740 -s 20 -d 4 -p AODV -e 44 -c 2 -a 0 -i 0 -k RTR
h -t 1.001408740 -s 20 -d 4 -p AODV -e 44 -c 2 -a 0 -i 0 -k RTR
r -t 1.001408774 -s 8 -d -1 -p AODV -e 48 -c 2 -a 0 -i 0 -k RTR
+ -t 1.001550334 -s 17 -d -1 -p AODV -e 48 -c 2 -a 0 -i 0 -k RTR 
- -t 1.001550334 -s 17 -d -1 -p AODV -e 48 -c 2 -a 0 -i 0 -k RTR
h -t 1.001550334 -s 17 -d -1 -p AODV -e 48 -c 2 -a 0 -i 0 -k RTR
+ -t 1.002289697 -s 23 -d -1 -p AODV -e 48 -c 2 -a 0 -i 0 -k RTR 
- -t 1.002289697 -s 23 -d -1 -p AODV -e 48 -c 2 -a 0 -i 0 -k RTR
h -t 1.002289697 -s 23 -d -1 -p AODV -e 48 -c 2 -a 0 -i 0 -k RTR
+ -t 1.004538392 -s 8 -d -1 -p AODV -e 48 -c 2 -a 0 -i 0 -k RTR 
- -t 1.004538392 -s 8 -d -1 -p AODV -e 48 -c 2 -a 0 -i 0 -k RTR
h -t 1.004538392 -s 8 -d -1 -p AODV -e 48 -c 2 -a 0 -i 0 -k RTR
+ -t 1.005820214 -s 7 -d -1 -p AODV -e 48 -c 2 -a 0 -i 0 -k RTR 
- -t 1.005820214 -s 7 -d -1 -p AODV -e 48 -c 2 -a 0 -i 0 -k RTR
h -t 1.005820214 -s 7 -d -1 -p AODV -e 48 -c 2 -a 0 -i 0 -k RTR
+ -t 1.005916920 -s 4 -d 20 -p cbr -e 1020 -c 2 -a 0 -i 0 -k RTR 
- -t 1.005916920 -s 4 -d 20 -p cbr -e 1020 -c 2 -a 0 -i 0 -k RTR
h -t 1.005916920 -s 4 -d 20 -p cbr -e 1020 -c 2 -a 0 -i 0 -k RTR
+ -t 1.009400258 -s 13 -d -1 -p AODV -e 48 -c 2 -a 0 -i 0 -k RTR 
- -t 1.009400258 -s 13 -d -1 -p AODV -e 48 -c 2 -a 0 -i 0 -k RTR
h -t 1.009400258 -s 13 -d -1 -p AODV -e 48 -c 2 -a 0 -i 0 -k RTR
r -t 1.015623140 -s 20 -d 20 -p cbr -e 1020 -c 2 -a 0 -i 0 -k AGT
r -t 1.016975803 -s 20 -d -1 -p AODV -e 48 -c 2 -a 0 -i 0 -k RTR
r -t 1.016975951 -s 4 -d -1 -p AODV -e 48 -c 2 -a 0 -i 0 -k RTR
r -t 1.016975964 -s 9 -d -1 -p AODV -e 48 -c 2 -a 0 -i 0 -k RTR
r -t 1.016976206 -s 14 -d -1 -p AODV -e 48 -c 2 -a 0 -i 0 -k RTR
r -t 1.016976226 -s 17 -d -1 -p AODV -e 48 -c 2 -a 0 -i 0 -k RTR
r -t 1.016976275 -s 8 -d -1 -p AODV -e 48 -c 2 -a 0 -i 0 -k RTR
+ -t 1.017917352 -s 9 -d -1 -p AODV -e 48 -c 2 -a 0 -i 0 -k RTR 
- -t 1.017917352 -s 9 -d -1 -p AODV -e 48 -c 2 -a 0 -i 0 -k RTR
h -t 1.017917352 -s 9 -d -1 -p AODV -e 48 -c 2 -a 0 -i 0 -k RTR
r -t 1.018094438 -s 23 -d -1 -p AODV -e 48 -c 2 -a 0 -i 0 -k RTR
r -t 1.018094515 -s 4 -d -1 -p AODV -e 48 -c 2 -a 0 -i 0 -k RTR
r -t 1.018094981 -s 7 -d -1 -p AODV -e 48 -c 2 -a 0 -i 0 -k RTR
r -t 1.018095056 -s 0 -d -1 -p AODV -e 48 -c 2 -a 0 -i 0 -k RTR
r -t 1.019352650 -s 17 -d -1 -p AODV -e 48 -c 2 -a 0 -i 0 -k RTR
r -t 1.019352905 -s 4 -d -1 -p AODV -e 48 -c 2 -a 0 -i 0 -k RTR
r -t 1.019353100 -s 0 -d -1 -p AODV -e 48 -c 2 -a 0 -i 0 -k RTR
r -t 1.019353169 -s 3 -d -1 -p AODV -e 48 -c 2 -a 0 -i 0 -k RTR
r -t 1.019353264 -s 5 -d -1 -p AODV -e 48 -c 2 -a 0 -i 0 -k RTR
r -t 1.020816273 -s 20 -d -1 -p AODV -e 48 -c 2 -a 0 -i 0 -k RTR
r -t 1.020816369 -s 7 -d -1 -p AODV -e 48 -c 2 -a 0 -i 0 -k RTR
r -t 1.020816568 -s 10 -d -1 -p AODV -e 48 -c 2 -a 0 -i 0 -k RTR
r -t 1.020816686 -s 12 -d -1 -p AODV -e 48 -c 2 -a 0 -i 0 -k RTR
r -t 1.022119263 -s 8 -d -1 -p AODV -e 48 -c 2 -a 0 -i 0 -k RTR
r -t 1.022119505 -s 11 -d -1 -p AODV -e 48 -c 2 -a 0 -i 0 -k RTR
r -t 1.022119519 -s 14 -d -1 -p AODV -e 48 -c 2 -a 0 -i 0 -k RTR
r -t 1.022119764 -s 4 -d -1 -p AODV -e 48 -c 2 -a 0 -i 0 -k RTR
r -t 1.022119826 -s 5 -d -1 -p AODV -e 48 -c 2 -a 0 -i 0 -k RTR
r -t 1.022119832 -s 0 -d -1 -p AODV -e 48 -c 2 -a 0 -i 0 -k RTR
r -t 1.022119856 -s 2 -d -1 -p AODV -e 48 -c 2 -a 0 -i 0 -k RTR
+ -t 1.022181913 -s 0 -d -1 -p AODV -e 48 -c 2 -a 0 -i 0 -k RTR 
- -t 1.022181913 -s 0 -d -1 -p AODV -e 48 -c 2 -a 0 -i 0 -k RTR
h -t 1.022181913 -s 0 -d -1 -p AODV -e 48 -c 2 -a 0 -i 0 -k RTR
+ -t 1.022988280 -s 12 -d -1 -p AODV -e 48 -c 2 -a 0 -i 0 -k RTR 
- -t 1.022988280 -s 12 -d -1 -p AODV -e 48 -c 2 -a 0 -i 0 -k RTR
h -t 1.022988280 -s 12 -d -1 -p AODV -e 48 -c 2 -a 0 -i 0 -k RTR
r -t 1.023097465 -s 13 -d -1 -p AODV -e 48 -c 2 -a 0 -i 0 -k RTR
r -t 1.023097523 -s 14 -d -1 -p AODV -e 48 -c 2 -a 0 -i 0 -k RTR
r -t 1.023097857 -s 2 -d -1 -p AODV -e 48 -c 2 -a 0 -i 0 -k RTR
r -t 1.023097857 -s 11 -d -1 -p AODV -e 48 -c 2 -a 0 -i 0 -k RTR
r -t 1.023098033 -s 10 -d -1 -p AODV -e 48 -c 2 -a 0 -i 0 -k RTR
r -t 1.023098034 -s 4 -d -1 -p AODV -e 48 -c 2 -a 0 -i 0 -k RTR
r -t 1.023098066 -s 7 -d -1 -p AODV -e 48 -c 2 -a 0 -i 0 -k RTR
+ -t 1.024014328 -s 3 -d -1 -p AODV -e 48 -c 2 -a 0 -i 0 -k RTR 
- -t 1.024014328 -s 3 -d -1 -p AODV -e 48 -c 2 -a 0 -i 0 -k RTR
h -t 1.024014328 -s 3 -d -1 -p AODV -e 48 -c 2 -a 0 -i 0 -k RTR
r -t 1.024500639 -s 10 -d -1 -p AODV -e 48 -c 2 -a 0 -i 0 -k RTR
r -t 1.024500748 -s 24 -d -1 -p AODV -e 48 -c 2 -a 0 -i 0 -k RTR
r -t 1.024500867 -s 2 -d -1 -p AODV -e 48 -c 2 -a 0 -i 0 -k RTR
r -t 1.024501142 -s 9 -d -1 -p AODV -e 48 -c 2 -a 0 -i 0 -k RTR
r -t 1.024720402 -s 3 -d -1 -p AODV -e 48 -c 2 -a 0 -i 0 -k RTR
r -t 1.024720411 -s 5 -d -1 -p AODV -e 48 -c 2 -a 0 -i 0 -k RTR
r -t 1.024720895 -s 16 -d -1 -p AODV -e 48 -c 2 -a 0 -i 0 -k RTR
r -t 1.024720897 -s 23 -d -1 -p AODV -e 48 -c 2 -a 0 -i 0 -k RTR
+ -t 1.025046491 -s 14 -d -1 -p AODV -e 48 -c 2 -a 0 -i 0 -k RTR 
- -t 1.025046491 -s 14 -d -1 -p AODV -e 48 -c 2 -a 0 -i 0 -k RTR
h -t 1.025046491 -s 14 -d -1 -p AODV -e 48 -c 2 -a 0 -i 0 -k RTR
r -t 1.025898569 -s 0 -d -1 -p AODV -e 48 -c 2 -a 0 -i 0 -k RTR
r -t 1.025898660 -s 5 -d -1 -p AODV -e 48 -c 2 -a 0 -i 0 -k RTR
r -t 1.025898991 -s 16 -d -1 -p AODV -e 48 -c 2 -a 0 -i 0 -k RTR
r -t 1.025899116 -s 11 -d -1 -p AODV -e 48 -c 2 -a 0 -i 0 -k RTR
r -t 1.025899132 -s 23 -d -1 -p AODV -e 48 -c 2 -a 0 -i 0 -k RTR
+ -t 1.026276332 -s 5 -d -1 -p AODV -e 48 -c 2 -a 0 -i 0 -k RTR 
- -t 1.026276332 -s 5 -d -1 -p AODV -e 48 -c 2 -a 0 -i 0 -k RTR
h -t 1.026276332 -s 5 -d -1 -p AODV -e 48 -c 2 -a 0 -i 0 -k RTR
+ -t 1.026374401 -s 24 -d -1 -p AODV -e 48 -c 2 -a 0 -i 0 -k RTR 
- -t 1.026374401 -s 24 -d -1 -p AODV -e 48 -c 2 -a 0 -i 0 -k RTR
h -t 1.026374401 -s 24 -d -1 -p AODV -e 48 -c 2 -a 0 -i 0 -k RTR
r -t 1.027284508 -s 0 -d -1 -p AODV -e 48 -c 2 -a 0 -i 0 -k RTR
r -t 1.027284590 -s 3 -d -1 -p AODV -e 48 -c 2 -a 0 -i 0 -k RTR
r -t 1.027284800 -s 11 -d -1 -p AODV -e 48 -c 2 -a 0 -i 0 -k RTR
r -t 1.027284867 -s 16 -d -1 -p AODV -e 48 -c 2 -a 0 -i 0 -k RTR
r -t 1.027285157 -s 23 -d -1 -p AODV -e 48 -c 2 -a 0 -i 0 -k RTR
r -t 1.027442817 -s 12 -d -1 -p AODV -e 48 -c 2 -a 0 -i 0 -k RTR
r -t 1.027443184 -s 6 -d -1 -p AODV -e 48 -c 2 -a 0 -i 0 -k RTR
+ -t 1.028674219 -s 6 -d -1 -p AODV -e 48 -c 2 -a 0 -i 0 -k RTR 
- -t 1.028674219 -s 6 -d -1 -p AODV -e 48 -c 2 -a 0 -i 0 -k RTR
h -t 1.028674219 -s 6 -d -1 -p AODV -e 48 -c 2 -a 0 -i 0 -k RTR
r -t 1.028785507 -s 8 -d -1 -p AODV -e 48 -c 2 -a 0 -i 0 -k RTR
r -t 1.028785616 -s 2 -d -1 -p AODV -e 48 -c 2 -a 0 -i 0 -k RTR
r -t 1.028785704 -s 13 -d -1 -p AODV -e 48 -c 2 -a 0 -i 0 -k RTR
r -t 1.028785756 -s 10 -d -1 -p AODV -e 48 -c 2 -a 0 -i 0 -k RTR
r -t 1.028785982 -s 7 -d -1 -p AODV -e 48 -c 2 -a 0 -i 0 -k RTR
r -t 1.028786057 -s 12 -d -1 -p AODV -e 48 -c 2 -a 0 -i 0 -k RTR
+ -t 1.028893346 -s 2 -d -1 -p AODV -e 48 -c 2 -a 0 -i 0 -k RTR 
- -t 1.028893346 -s 2 -d -1 -p AODV -e 48 -c 2 -a 0 -i 0 -k RTR
h -t 1.028893346 -s 2 -d -1 -p AODV -e 48 -c 2 -a 0 -i 0 -k RTR
+ -t 1.029214820 -s 10 -d -1 -p AODV -e 48 -c 2 -a 0 -i 0 -k RTR 
- -t 1.029214820 -s 10 -d -1 -p AODV -e 48 -c 2 -a 0 -i 0 -k RTR
h -t 1.029214820 -s 10 -d -1 -p AODV -e 48 -c 2 -a 0 -i 0 -k RTR
r -t 1.030163127 -s 12 -d -1 -p AODV -e 48 -c 2 -a 0 -i 0 -k RTR
r -t 1.030163129 -s 2 -d -1 -p AODV -e 48 -c 2 -a 0 -i 0 -k RTR
r -t 1.030163329 -s 14 -d -1 -p AODV -e 48 -c 2 -a 0 -i 0 -k RTR
r -t 1.030163330 -s 24 -d -1 -p AODV -e 48 -c 2 -a 0 -i 0 -k RTR
r -t 1.030163511 -s 9 -d -1 -p AODV -e 48 -c 2 -a 0 -i 0 -k RTR
r -t 1.030163589 -s 8 -d -1 -p AODV -e 48 -c 2 -a 0 -i 0 -k RTR
+ -t 1.030630571 -s 11 -d -1 -p AODV -e 48 -c 2 -a 0 -i 0 -k RTR 
- -t 1.030630571 -s 11 -d -1 -p AODV -e 48 -c 2 -a 0 -i 0 -k RTR
h -t 1.030630571 -s 11 -d -1 -p AODV -e 48 -c 2 -a 0 -i 0 -k RTR
r -t 1.031221438 -s 10 -d -1 -p AODV -e 48 -c 2 -a 0 -i 0 -k RTR
r -t 1.031221498 -s 14 -d -1 -p AODV -e 48 -c 2 -a 0 -i 0 -k RTR
r -t 1.031221606 -s 24 -d -1 -p AODV -e 48 -c 2 -a 0 -i 0 -k RTR
r -t 1.031221664 -s 12 -d -1 -p AODV -e 48 -c 2 -a 0 -i 0 -k RTR
r -t 1.031221724 -s 8 -d -1 -p AODV -e 48 -c 2 -a 0 -i 0 -k RTR
r -t 1.031221924 -s 13 -d -1 -p AODV -e 48 -c 2 -a 0 -i 0 -k RTR
r -t 1.032565079 -s 24 -d -1 -p AODV -e 48 -c 2 -a 0 -i 0 -k RTR
r -t 1.032565099 -s 15 -d -1 -p AODV -e 48 -c 2 -a 0 -i 0 -k RTR
r -t 1.032804683 -s 13 -d -1 -p AODV -e 48 -c 2 -a 0 -i 0 -k RTR
r -t 1.032804707 -s 5 -d -1 -p AODV -e 48 -c 2 -a 0 -i 0 -k RTR
r -t 1.032804811 -s 0 -d -1 -p AODV -e 48 -c 2 -a 0 -i 0 -k RTR
r -t 1.032804953 -s 3 -d -1 -p AODV -e 48 -c 2 -a 0 -i 0 -k RTR
+ -t 1.032840674 -s 15 -d -1 -p AODV -e 48 -c 2 -a 0 -i 0 -k RTR 
- -t 1.032840674 -s 15 -d -1 -p AODV -e 48 -c 2 -a 0 -i 0 -k RTR
h -t 1.032840674 -s 15 -d -1 -p AODV -e 48 -c 2 -a 0 -i 0 -k RTR
r -t 1.034068268 -s 19 -d -1 -p AODV -e 48 -c 2 -a 0 -i 0 -k RTR
r -t 1.034068459 -s 22 -d -1 -p AODV -e 48 -c 2 -a 0 -i 0 -k RTR
r -t 1.034068576 -s 6 -d -1 -p AODV -e 48 -c 2 -a 0 -i 0 -k RTR
+ -t 1.034183545 -s 16 -d -1 -p AODV -e 48 -c 2 -a 0 -i 0 -k RTR 
- -t 1.034183545 -s 16 -d -1 -p AODV -e 48 -c 2 -a 0 -i 0 -k RTR
h -t 1.034183545 -s 16 -d -1 -p AODV -e 48 -c 2 -a 0 -i 0 -k RTR
r -t 1.035152080 -s 5 -d -1 -p AODV -e 48 -c 2 -a 0 -i 0 -k RTR
r -t 1.035152085 -s 1 -d -1 -p AODV -e 48 -c 2 -a 0 -i 0 -k RTR
r -t 1.035152134 -s 3 -d -1 -p AODV -e 48 -c 2 -a 0 -i 0 -k RTR
r -t 1.035152178 -s 21 -d -1 -p AODV -e 48 -c 2 -a 0 -i 0 -k RTR
r -t 1.035152203 -s 0 -d -1 -p AODV -e 48 -c 2 -a 0 -i 0 -k RTR
r -t 1.035152354 -s 18 -d -1 -p AODV -e 48 -c 2 -a 0 -i 0 -k RTR
+ -t 1.036065923 -s 18 -d -1 -p AODV -e 48 -c 2 -a 0 -i 0 -k RTR 
- -t 1.036065923 -s 18 -d -1 -p AODV -e 48 -c 2 -a 0 -i 0 -k RTR
h -t 1.036065923 -s 18 -d -1 -p AODV -e 48 -c 2 -a 0 -i 0 -k RTR
+ -t 1.036939363 -s 1 -d -1 -p AODV -e 48 -c 2 -a 0 -i 0 -k RTR 
- -t 1.036939363 -s 1 -d -1 -p AODV -e 48 -c 2 -a 0 -i 0 -k RTR
h -t 1.036939363 -s 1 -d -1 -p AODV -e 48 -c 2 -a 0 -i 0 -k RTR
r -t 1.037054732 -s 16 -d -1 -p AODV -e 48 -c 2 -a 0 -i 0 -k RTR
r -t 1.038777543 -s 16 -d -1 -p AODV -e 48 -c 2 -a 0 -i 0 -k RTR
r -t 1.038777550 -s 21 -d -1 -p AODV -e 48 -c 2 -a 0 -i 0 -k RTR
+ -t 1.041795416 -s 22 -d -1 -p AODV -e 48 -c 2 -a 0 -i 0 -k RTR 
- -t 1.041795416 -s 22 -d -1 -p AODV -e 48 -c 2 -a 0 -i 0 -k RTR
h -t 1.041795416 -s 22 -d -1 -p AODV -e 48 -c 2 -a 0 -i 0 -k RTR
r -t 1.042843840 -s 19 -d -1 -p AODV -e 48 -c 2 -a 0 -i 0 -k RTR
r -t 1.042844102 -s 15 -d -1 -p AODV -e 48 -c 2 -a 0 -i 0 -k RTR
+ -t 1.043536430 -s 19 -d -1 -p AODV -e 48 -c 2 -a 0 -i 0 -k RTR 
- -t 1.043536430 -s 19 -d -1 -p AODV -e 48 -c 2 -a 0 -i 0 -k RTR
h -t 1.043536430 -s 19 -d -1 -p AODV -e 48 -c 2 -a 0 -i 0 -k RTR
r -t 1.044744853 -s 22 -d -1 -p AODV -e 48 -c 2 -a 0 -i 0 -k RTR
r -t 1.044744923 -s 15 -d -1 -p AODV -e 48 -c 2 -a 0 -i 0 -k RTR
+ -t 1.044912245 -s 21 -d -1 -p AODV -e 48 -c 2 -a 0 -i 0 -k RTR 
- -t 1.044912245 -s 21 -d -1 -p AODV -e 48 -c 2 -a 0 -i 0 -k RTR
h -t 1.044912245 -s 21 -d -1 -p AODV -e 48 -c 2 -a 0 -i 0 -k RTR
r -t 1.046068188 -s 1 -d -1 -p AODV -e 48 -c 2 -a 0 -i 0 -k RTR
r -t 1.046068274 -s 16 -d -1 -p AODV -e 48 -c 2 -a 0 -i 0 -k RTR
+ -t 1.100000000 -s 4 -d -1 -p cbr -e 1000 -c 2 -a 0 -i 1 -k AGT 
- -t 1.100000000 -s 4 -d -1 -p cbr -e 1000 -c 2 -a 0 -i 1 -k AGT
h -t 1.100000000 -s 4 -d -1 -p cbr -e 1000 -c 2 -a 0 -i 1 -k AGT
+ -t 1.100000000 -s 4 -d 20 -p cbr -e 1020 -c 2 -a 0 -i 1 -k RTR 
- -t 1.100000000 -s 4 -d 20 -p cbr -e 1020 -c 2 -a 0 -i 1 -k RTR
h -t 1.100000000 -s 4 -d 20 -p cbr -e 1020 -c 2 -a 0 -i 1 -k RTR
r -t 1.110002212 -s 20 -d 20 -p cbr -e 1020 -c 2 -a 0 -i 1 -k AGT
+ -t 1.200000000 -s 4 -d -1 -p cbr -e 1000 -c 2 -a 0 -i 2 -k AGT 
- -t 1.200000000 -s 4 -d -1 -p cbr -e 1000 -c 2 -a 0 -i 2 -k AGT
h -t 1.200000000 -s 4 -d -1 -p cbr -e 1000 -c 2 -a 0 -i 2 -k AGT
+ -t 1.200000000 -s 4 -d 20 -p cbr -e 1020 -c 2 -a 0 -i 2 -k RTR 
- -t 1.200000000 -s 4 -d 20 -p cbr -e 1020 -c 2 -a 0 -i 2 -k RTR
h -t 1.200000000 -s 4 -d 20 -p cbr -e 1020 -c 2 -a 0 -i 2 -k RTR
r -t 1.209462205 -s 20 -d 20 -p cbr -e 1020 -c 2 -a 0 -i 2 -k AGT
+ -t 1.300000000 -s 4 -d -1 -p cbr -e 1000 -c 2 -a 0 -i 3 -k AGT 
- -t 1.300000000 -s 4 -d -1 -p cbr -e 1000 -c 2 -a 0 -i 3 -k AGT
h -t 1.300000000 -s 4 -d -1 -p cbr -e 1000 -c 2 -a 0 -i 3 -k AGT
+ -t 1.300000000 -s 4 -d 20 -p cbr -e 1020 -c 2 -a 0 -i 3 -k RTR 
- -t 1.300000000 -s 4 -d 20 -p cbr -e 1020 -c 2 -a 0 -i 3 -k RTR
h -t 1.300000000 -s 4 -d 20 -p cbr -e 1020 -c 2 -a 0 -i 3 -k RTR
r -t 1.309522197 -s 20 -d 20 -p cbr -e 1020 -c 2 -a 0 -i 3 -k AGT
+ -t 1.400000000 -s 4 -d -1 -p cbr -e 1000 -c 2 -a 0 -i 4 -k AGT 
- -t 1.400000000 -s 4 -d -1 -p cbr -e 1000 -c 2 -a 0 -i 4 -k AGT
h -t 1.400000000 -s 4 -d -1 -p cbr -e 1000 -c 2 -a 0 -i 4 -k AGT
+ -t 1.400000000 -s 4 -d 20 -p cbr -e 1020 -c 2 -a 0 -i 4 -k RTR 
- -t 1.400000000 -s 4 -d 20 -p cbr -e 1020 -c 2 -a 0 -i 4 -k RTR
h -t 1.400000000 -s 4 -d 20 -p cbr -e 1020 -c 2 -a 0 -i 4 -k RTR
r -t 1.409842190 -s 20 -d 20 -p cbr -e 1020 -c 2 -a 0 -i 4 -k AGT
+ -t 1.500000000 -s 4 -d -1 -p cbr -e 1000 -c 2 -a 0 -i 5 -k AGT 
- -t 1.500000000 -s 4 -d -1 -p cbr -e 1000 -c 2 -a 0 -i 5 -k AGT
h -t 1.500000000 -s 4 -d -1 -p cbr -e 1000 -c 2 -a 0 -i 5 -k AGT
+ -t 1.500000000 -s 4 -d 20 -p cbr -e 1020 -c 2 -a 0 -i 5 -k RTR 
- -t 1.500000000 -s 4 -d 20 -p cbr -e 1020 -c 2 -a 0 -i 5 -k RTR
h -t 1.500000000 -s 4 -d 20 -p cbr -e 1020 -c 2 -a 0 -i 5 -k RTR
r -t 1.509702182 -s 20 -d 20 -p cbr -e 1020 -c 2 -a 0 -i 5 -k AGT
+ -t 1.600000000 -s 4 -d -1 -p cbr -e 1000 -c 2 -a 0 -i 6 -k AGT 
- -t 1.600000000 -s 4 -d -1 -p cbr -e 1000 -c 2 -a 0 -i 6 -k AGT
h -t 1.600000000 -s 4 -d -1 -p cbr -e 1000 -c 2 -a 0 -i 6 -k AGT
+ -t 1.600000000 -s 4 -d 20 -p cbr -e 1020 -c 2 -a 0 -i 6 -k RTR 
- -t 1.600000000 -s 4 -d 20 -p cbr -e 1020 -c 2 -a 0 -i 6 -k RTR
h -t 1.600000000 -s 4 -d 20 -p cbr -e 1020 -c 2 -a 0 -i 6 -k RTR
r -t 1.609702175 -s 20 -d 20 -p cbr -e 1020 -c 2 -a 0 -i 6 -k AGT
+ -t 1.700000000 -s 4 -d -1 -p cbr -e 1000 -c 2 -a 0 -i 7 -k AGT 
- -t 1.700000000 -s 4 -d -1 -p cbr -e 1000 -c 2 -a 0 -i 7 -k AGT
h -t 1.700000000 -s 4 -d -1 -p cbr -e 1000 -c 2 -a 0 -i 7 -k AGT
+ -t 1.700000000 -s 4 -d 20 -p cbr -e 1020 -c 2 -a 0 -i 7 -k RTR 
- -t 1.700000000 -s 4 -d 20 -p cbr -e 1020 -c 2 -a 0 -i 7 -k RTR
h -t 1.700000000 -s 4 -d 20 -p cbr -e 1020 -c 2 -a 0 -i 7 -k RTR
r -t 1.709442169 -s 20 -d 20 -p cbr -e 1020 -c 2 -a 0 -i 7 -k AGT
+ -t 1.800000000 -s 4 -d -1 -p cbr -e 1000 -c 2 -a 0 -i 8 -k AGT 
- -t 1.800000000 -s 4 -d -1 -p cbr -e 1000 -c 2 -a 0 -i 8 -k AGT
h -t 1.800000000 -s 4 -d -1 -p cbr -e 1000 -c 2 -a 0 -i 8 -k AGT
+ -t 1.800000000 -s 4 -d 20 -p cbr -e 1020 -c 2 -a 0 -i 8 -k RTR 
- -t 1.800000000 -s 4 -d 20 -p cbr -e 1020 -c 2 -a 0 -i 8 -k RTR
h -t 1.800000000 -s 4 -d 20 -p cbr -e 1020 -c 2 -a 0 -i 8 -k RTR
r -t 1.809622162 -s 20 -d 20 -p cbr -e 1020 -c 2 -a 0 -i 8 -k AGT
+ -t 1.900000000 -s 4 -d -1 -p cbr -e 1000 -c 2 -a 0 -i 9 -k AGT 
- -t 1.900000000 -s 4 -d -1 -p cbr -e 1000 -c 2 -a 0 -i 9 -k AGT
h -t 1.900000000 -s 4 -d -1 -p cbr -e 1000 -c 2 -a 0 -i 9 -k AGT
+ -t 1.900000000 -s 4 -d 20 -p cbr -e 1020 -c 2 -a 0 -i 9 -k RTR 
- -t 1.900000000 -s 4 -d 20 -p cbr -e 1020 -c 2 -a 0 -i 9 -k RTR
h -t 1.900000000 -s 4 -d 20 -p cbr -e 1020 -c 2 -a 0 -i 9 -k RTR
r -t 1.909562156 -s 20 -d 20 -p cbr -e 1020 -c 2 -a 0 -i 9 -k AGT
+ -t 2.000000000 -s 4 -d -1 -p cbr -e 1000 -c 2 -a 0 -i 10 -k AGT 
- -t 2.000000000 -s 4 -d -1 -p cbr -e 1000 -c 2 -a 0 -i 10 -k AGT
h -t 2.000000000 -s 4 -d -1 -p cbr -e 1000 -c 2 -a 0 -i 10 -k AGT
+ -t 2.000000000 -s 4 -d 20 -p cbr -e 1020 -c 2 -a 0 -i 10 -k RTR 
- -t 2.000000000 -s 4 -d 20 -p cbr -e 1020 -c 2 -a 0 -i 10 -k RTR
h -t 2.000000000 -s 4 -d 20 -p cbr -e 1020 -c 2 -a 0 -i 10 -k RTR
r -t 2.009802149 -s 20 -d 20 -p cbr -e 1020 -c 2 -a 0 -i 10 -k AGT
+ -t 2.100000000 -s 4 -d -1 -p cbr -e 1000 -c 2 -a 0 -i 11 -k AGT 
- -t 2.100000000 -s 4 -d -1 -p cbr -e 1000 -c 2 -a 0 -i 11 -k AGT
h -t 2.100000000 -s 4 -d -1 -p cbr -e 1000 -c 2 -a 0 -i 11 -k AGT
+ -t 2.100000000 -s 4 -d 20 -p cbr -e 1020 -c 2 -a 0 -i 11 -k RTR 
- -t 2.100000000 -s 4 -d 20 -p cbr -e 1020 -c 2 -a 0 -i 11 -k RTR
h -t 2.100000000 -s 4 -d 20 -p cbr -e 1020 -c 2 -a 0 -i 11 -k RTR
r -t 2.109562143 -s 20 -d 20 -p cbr -e 1020 -c 2 -a 0 -i 11 -k AGT
+ -t 2.200000000 -s 4 -d -1 -p cbr -e 1000 -c 2 -a 0 -i 12 -k AGT 
- -t 2.200000000 -s 4 -d -1 -p cbr -e 1000 -c 2 -a 0 -i 12 -k AGT
h -t 2.200000000 -s 4 -d -1 -p cbr -e 1000 -c 2 -a 0 -i 12 -k AGT
+ -t 2.200000000 -s 4 -d 20 -p cbr -e 1020 -c 2 -a 0 -i 12 -k RTR 
- -t 2.200000000 -s 4 -d 20 -p cbr -e 1020 -c 2 -a 0 -i 12 -k RTR
h -t 2.200000000 -s 4 -d 20 -p cbr -e 1020 -c 2 -a 0 -i 12 -k RTR
r -t 2.209402138 -s 20 -d 20 -p cbr -e 1020 -c 2 -a 0 -i 12 -k AGT
+ -t 2.300000000 -s 4 -d -1 -p cbr -e 1000 -c 2 -a 0 -i 13 -k AGT 
- -t 2.300000000 -s 4 -d -1 -p cbr -e 1000 -c 2 -a 0 -i 13 -k AGT
h -t 2.300000000 -s 4 -d -1 -p cbr -e 1000 -c 2 -a 0 -i 13 -k AGT
+ -t 2.300000000 -s 4 -d 20 -p cbr -e 1020 -c 2 -a 0 -i 13 -k RTR 
- -t 2.300000000 -s 4 -d 20 -p cbr -e 1020 -c 2 -a 0 -i 13 -k RTR
h -t 2.300000000 -s 4 -d 20 -p cbr -e 1020 -c 2 -a 0 -i 13 -k RTR
r -t 2.309762132 -s 20 -d 20 -p cbr -e 1020 -c 2 -a 0 -i 13 -k AGT
+ -t 2.400000000 -s 4 -d -1 -p cbr -e 1000 -c 2 -a 0 -i 14 -k AGT 
- -t 2.400000000 -s 4 -d -1 -p cbr -e 1000 -c 2 -a 0 -i 14 -k AGT
h -t 2.400000000 -s 4 -d -1 -p cbr -e 1000 -c 2 -a 0 -i 14 -k AGT
+ -t 2.400000000 -s 4 -d 20 -p cbr -e 1020 -c 2 -a 0 -i 14 -k RTR 
- -t 2.400000000 -s 4 -d 20 -p cbr -e 1020 -c 2 -a 0 -i 14 -k RTR
h -t 2.400000000 -s 4 -d 20 -p cbr -e 1020 -c 2 -a 0 -i 14 -k RTR
r -t 2.409822127 -s 20 -d 20 -p cbr -e 1020 -c 2 -a 0 -i 14 -k AGT
+ -t 2.500000000 -s 4 -d -1 -p cbr -e 1000 -c 2 -a 0 -i 15 -k AGT 
- -t 2.500000000 -s 4 -d -1 -p cbr -e 1000 -c 2 -a 0 -i 15 -k AGT
h -t 2.500000000 -s 4 -d -1 -p cbr -e 1000 -c 2 -a 0 -i 15 -k AGT
+ -t 2.500000000 -s 4 -d 20 -p cbr -e 1020 -c 2 -a 0 -i 15 -k RTR 
- -t 2.500000000 -s 4 -d 20 -p cbr -e 1020 -c 2 -a 0 -i 15 -k RTR
h -t 2.500000000 -s 4 -d 20 -p cbr -e 1020 -c 2 -a 0 -i 15 -k RTR
r -t 2.509722121 -s 20 -d 20 -p cbr -e 1020 -c 2 -a 0 -i 15 -k AGT
+ -t 2.600000000 -s 4 -d -1 -p cbr -e 1000 -c 2 -a 0 -i 16 -k AGT 
- -t 2.600000000 -s 4 -d -1 -p cbr -e 1000 -c 2 -a 0 -i 16 -k AGT
h -t 2.600000000 -s 4 -d -1 -p cbr -e 1000 -c 2 -a 0 -i 16 -k AGT
+ -t 2.600000000 -s 4 -d 20 -p cbr -e 1020 -c 2 -a 0 -i 16 -k RTR 
- -t 2.600000000 -s 4 -d 20 -p cbr -e 1020 -c 2 -a 0 -i 16 -k RTR
h -t 2.600000000 -s 4 -d 20 -p cbr -e 1020 -c 2 -a 0 -i 16 -k RTR
r -t 2.609422116 -s 20 -d 20 -p cbr -e 1020 -c 2 -a 0 -i 16 -k AGT
+ -t 2.700000000 -s 4 -d -1 -p cbr -e 1000 -c 2 -a 0 -i 17 -k AGT 
- -t 2.700000000 -s 4 -d -1 -p cbr -e 1000 -c 2 -a 0 -i 17 -k AGT
h -t 2.700000000 -s 4 -d -1 -p cbr -e 1000 -c 2 -a 0 -i 17 -k AGT
+ -t 2.700000000 -s 4 -d 20 -p cbr -e 1020 -c 2 -a 0 -i 17 -k RTR 
- -t 2.700000000 -s 4 -d 20 -p cbr -e 1020 -c 2 -a 0 -i 17 -k RTR
h -t 2.700000000 -s 4 -d 20 -p cbr -e 1020 -c 2 -a 0 -i 17 -k RTR
r -t 2.709502112 -s 20 -d 20 -p cbr -e 1020 -c 2 -a 0 -i 17 -k AGT
+ -t 2.800000000 -s 4 -d -1 -p cbr -e 1000 -c 2 -a 0 -i 18 -k AGT 
- -t 2.800000000 -s 4 -d -1 -p cbr -e 1000 -c 2 -a 0 -i 18 -k AGT
h -t 2.800000000 -s 4 -d -1 -p cbr -e 1000 -c 2 -a 0 -i 18 -k AGT
+ -t 2.800000000 -s 4 -d 20 -p cbr -e 1020 -c 2 -a 0 -i 18 -k RTR 
- -t 2.800000000 -s 4 -d 20 -p cbr -e 1020 -c 2 -a 0 -i 18 -k RTR
h -t 2.800000000 -s 4 -d 20 -p cbr -e 1020 -c 2 -a 0 -i 18 -k RTR
r -t 2.809462107 -s 20 -d 20 -p cbr -e 1020 -c 2 -a 0 -i 18 -k AGT
+ -t 2.900000000 -s 4 -d -1 -p cbr -e 1000 -c 2 -a 0 -i 19 -k AGT 
- -t 2.900000000 -s 4 -d -1 -p cbr -e 1000 -c 2 -a 0 -i 19 -k AGT
h -t 2.900000000 -s 4 -d -1 -p cbr -e 1000 -c 2 -a 0 -i 19 -k AGT
+ -t 2.900000000 -s 4 -d 20 -p cbr -e 1020 -c 2 -a 0 -i 19 -k RTR 
- -t 2.900000000 -s 4 -d 20 -p cbr -e 1020 -c 2 -a 0 -i 19 -k RTR
h -t 2.900000000 -s 4 -d 20 -p cbr -e 1020 -c 2 -a 0 -i 19 -k RTR
r -t 2.910002103 -s 20 -d 20 -p cbr -e 1020 -c 2 -a 0 -i 19 -k AGT
+ -t 3.000000000 -s 4 -d -1 -p cbr -e 1000 -c 2 -a 0 -i 20 -k AGT 
- -t 3.000000000 -s 4 -d -1 -p cbr -e 1000 -c 2 -a 0 -i 20 -k AGT
h -t 3.000000000 -s 4 -d -1 -p cbr -e 1000 -c 2 -a 0 -i 20 -k AGT
+ -t 3.000000000 -s 4 -d 20 -p cbr -e 1020 -c 2 -a 0 -i 20 -k RTR 
- -t 3.000000000 -s 4 -d 20 -p cbr -e 1020 -c 2 -a 0 -i 20 -k RTR
h -t 3.000000000 -s 4 -d 20 -p cbr -e 1020 -c 2 -a 0 -i 20 -k RTR
r -t 3.009422098 -s 20 -d 20 -p cbr -e 1020 -c 2 -a 0 -i 20 -k AGT
+ -t 3.100000000 -s 4 -d -1 -p cbr -e 1000 -c 2 -a 0 -i 21 -k AGT 
- -t 3.100000000 -s 4 -d -1 -p cbr -e 1000 -c 2 -a 0 -i 21 -k AGT
h -t 3.100000000 -s 4 -d -1 -p cbr -e 1000 -c 2 -a 0 -i 21 -k AGT
+ -t 3.100000000 -s 4 -d 20 -p cbr -e 1020 -c 2 -a 0 -i 21 -k RTR 
- -t 3.100000000 -s 4 -d 20 -p cbr -e 1020 -c 2 -a 0 -i 21 -k RTR
h -t 3.100000000 -s 4 -d 20 -p cbr -e 1020 -c 2 -a 0 -i 21 -k RTR
r -t 3.109462094 -s 20 -d 20 -p cbr -e 1020 -c 2 -a 0 -i 21 -k AGT
+ -t 3.200000000 -s 4 -d -1 -p cbr -e 1000 -c 2 -a 0 -i 22 -k AGT 
- -t 3.200000000 -s 4 -d -1 -p cbr -e 1000 -c 2 -a 0 -i 22 -k AGT
h -t 3.200000000 -s 4 -d -1 -p cbr -e 1000 -c 2 -a 0 -i 22 -k AGT
+ -t 3.200000000 -s 4 -d 20 -p cbr -e 1020 -c 2 -a 0 -i 22 -k RTR 
- -t 3.200000000 -s 4 -d 20 -p cbr -e 1020 -c 2 -a 0 -i 22 -k RTR
h -t 3.200000000 -s 4 -d 20 -p cbr -e 1020 -c 2 -a 0 -i 22 -k RTR
r -t 3.209422091 -s 20 -d 20 -p cbr -e 1020 -c 2 -a 0 -i 22 -k AGT
+ -t 3.300000000 -s 4 -d -1 -p cbr -e 1000 -c 2 -a 0 -i 23 -k AGT 
- -t 3.300000000 -s 4 -d -1 -p cbr -e 1000 -c 2 -a 0 -i 23 -k AGT
h -t 3.300000000 -s 4 -d -1 -p cbr -e 1000 -c 2 -a 0 -i 23 -k AGT
+ -t 3.300000000 -s 4 -d 20 -p cbr -e 1020 -c 2 -a 0 -i 23 -k RTR 
- -t 3.300000000 -s 4 -d 20 -p cbr -e 1020 -c 2 -a 0 -i 23 -k RTR
h -t 3.300000000 -s 4 -d 20 -p cbr -e 1020 -c 2 -a 0 -i 23 -k RTR
r -t 3.309782087 -s 20 -d 20 -p cbr -e 1020 -c 2 -a 0 -i 23 -k AGT
+ -t 3.400000000 -s 4 -d -1 -p cbr -e 1000 -c 2 -a 0 -i 24 -k AGT 
- -t 3.400000000 -s 4 -d -1 -p cbr -e 1000 -c 2 -a 0 -i 24 -k AGT
h -t 3.400000000 -s 4 -d -1 -p cbr -e 1000 -c 2 -a 0 -i 24 -k AGT
+ -t 3.400000000 -s 4 -d 20 -p cbr -e 1020 -c 2 -a 0 -i 24 -k RTR 
- -t 3.400000000 -s 4 -d 20 -p cbr -e 1020 -c 2 -a 0 -i 24 -k RTR
h -t 3.400000000 -s 4 -d 20 -p cbr -e 1020 -c 2 -a 0 -i 24 -k RTR
r -t 3.409782084 -s 20 -d 20 -p cbr -e 1020 -c 2 -a 0 -i 24 -k AGT
+ -t 3.500000000 -s 4 -d -1 -p cbr -e 1000 -c 2 -a 0 -i 25 -k AGT 
- -t 3.500000000 -s 4 -d -1 -p cbr -e 1000 -c 2 -a 0 -i 25 -k AGT
h -t 3.500000000 -s 4 -d -1 -p cbr -e 1000 -c 2 -a 0 -i 25 -k AGT
+ -t 3.500000000 -s 4 -d 20 -p cbr -e 1020 -c 2 -a 0 -i 25 -k RTR 
- -t 3.500000000 -s 4 -d 20 -p cbr -e 1020 -c 2 -a 0 -i 25 -k RTR
h -t 3.500000000 -s 4 -d 20 -p cbr -e 1020 -c 2 -a 0 -i 25 -k RTR
r -t 3.509722081 -s 20 -d 20 -p cbr -e 1020 -c 2 -a 0 -i 25 -k AGT
+ -t 3.600000000 -s 4 -d -1 -p cbr -e 1000 -c 2 -a 0 -i 26 -k AGT 
- -t 3.600000000 -s 4 -d -1 -p cbr -e 1000 -c 2 -a 0 -i 26 -k AGT
h -t 3.600000000 -s 4 -d -1 -p cbr -e 1000 -c 2 -a 0 -i 26 -k AGT
+ -t 3.600000000 -s 4 -d 20 -p cbr -e 1020 -c 2 -a 0 -i 26 -k RTR 
- -t 3.600000000 -s 4 -d 20 -p cbr -e 1020 -c 2 -a 0 -i 26 -k RTR
h -t 3.600000000 -s 4 -d 20 -p cbr -e 1020 -c 2 -a 0 -i 26 -k RTR
r -t 3.609942078 -s 20 -d 20 -p cbr -e 1020 -c 2 -a 0 -i 26 -k AGT
+ -t 3.700000000 -s 4 -d -1 -p cbr -e 1000 -c 2 -a 0 -i 27 -k AGT 
- -t 3.700000000 -s 4 -d -1 -p cbr -e 1000 -c 2 -a 0 -i 27 -k AGT
h -t 3.700000000 -s 4 -d -1 -p cbr -e 1000 -c 2 -a 0 -i 27 -k AGT
+ -t 3.700000000 -s 4 -d 20 -p cbr -e 1020 -c 2 -a 0 -i 27 -k RTR 
- -t 3.700000000 -s 4 -d 20 -p cbr -e 1020 -c 2 -a 0 -i 27 -k RTR
h -t 3.700000000 -s 4 -d 20 -p cbr -e 1020 -c 2 -a 0 -i 27 -k RTR
r -t 3.709542075 -s 20 -d 20 -p cbr -e 1020 -c 2 -a 0 -i 27 -k AGT
+ -t 3.800000000 -s 4 -d -1 -p cbr -e 1000 -c 2 -a 0 -i 28 -k AGT 
- -t 3.800000000 -s 4 -d -1 -p cbr -e 1000 -c 2 -a 0 -i 28 -k AGT
h -t 3.800000000 -s 4 -d -1 -p cbr -e 1000 -c 2 -a 0 -i 28 -k AGT
+ -t 3.800000000 -s 4 -d 20 -p cbr -e 1020 -c 2 -a 0 -i 28 -k RTR 
- -t 3.800000000 -s 4 -d 20 -p cbr -e 1020 -c 2 -a 0 -i 28 -k RTR
h -t 3.800000000 -s 4 -d 20 -p cbr -e 1020 -c 2 -a 0 -i 28 -k RTR
r -t 3.809402073 -s 20 -d 20 -p cbr -e 1020 -c 2 -a 0 -i 28 -k AGT
+ -t 3.900000000 -s 4 -d -1 -p cbr -e 1000 -c 2 -a 0 -i 29 -k AGT 
- -t 3.900000000 -s 4 -d -1 -p cbr -e 1000 -c 2 -a 0 -i 29 -k AGT
h -t 3.900000000 -s 4 -d -1 -p cbr -e 1000 -c 2 -a 0 -i 29 -k AGT
+ -t 3.900000000 -s 4 -d 20 -p cbr -e 1020 -c 2 -a 0 -i 29 -k RTR 
- -t 3.900000000 -s 4 -d 20 -p cbr -e 1020 -c 2 -a 0 -i 29 -k RTR
h -t 3.900000000 -s 4 -d 20 -p cbr -e 1020 -c 2 -a 0 -i 29 -k RTR