v 0.01 eval {set sim_annotation {Network Deployment}}
M 0.10000 0 (291.12, 725.21, 0.00), (161.29, 607.84), 40.00
M 0.10000 1 (696.81, 190.27, 0.00), (45.82, 144.07), 40.00
M 0.10000 2 (288.04, 45.98, 0.00), (693.82, 6.75), 40.00
M 0.10000 3 (31.07, 163.80, 0.00), (709.87, 614.23), 40.00
M 0.10000 4 (149.31, 315.87, 0.00), (243.89, 46.44), 40.00
M 0.10000 5 (33.18, 496.89, 0.00), (660.23, 367.45), 40.00
M 0.10000 6 (103.55, 357.09, 0.00), (646.26, 533.88), 40.00
M 0.10000 7 (46.47, 764.34, 0.00), (138.19, 494.48), 40.00
M 0.10000 8 (789.00, 528.34, 0.00), (353.03, 234.43), 40.00
M 0.10000 9 (752.85, 133.99, 0.00), (20.79, 392.45), 40.00
M 0.10000 10 (32.67, 30.89, 0.00), (803.03, 443.97), 40.00
M 0.10000 11 (923.55, 57.26, 0.00), (304.51, 715.63), 40.00
M 0.10000 12 (890.70, 755.31, 0.00), (448.42, 489.66), 40.00
M 0.10000 13 (79.84, 700.53, 0.00), (225.95, 415.66), 40.00
M 0.10000 14 (200.23, 174.96, 0.00), (569.77, 125.91), 40.00
M 0.10000 15 (717.28, 233.12, 0.00), (113.54, 247.01), 40.00
M 0.10000 16 (658.11, 671.61, 0.00), (434.81, 719.29), 40.00
M 0.10000 17 (630.28, 133.35, 0.00), (458.68, 47.24), 40.00
M 0.10000 18 (432.03, 51.99, 0.00), (477.52, 581.55), 40.00
M 0.10000 19 (261.45, 198.61, 0.00), (606.99, 489.74), 40.00
M 0.10000 20 (583.82, 261.61, 0.00), (845.18, 718.98), 40.00
M 0.10000 21 (86.92, 645.82, 0.00), (777.30, 94.22), 40.00
M 0.10000 22 (944.05, 566.57, 0.00), (458.36, 520.53), 40.00
M 0.10000 23 (957.52, 62.62, 0.00), (683.64, 748.68), 40.00
M 0.10000 24 (572.53, 423.64, 0.00), (809.27, 328.85), 40.00
s 1.000000000 _4_ AGT  --- 0 cbr 1000 [0 0 0 0] [energy 100.000000 ei 0.000 es 0.000 et 0.000 er 0.000] ------- [4:0 20:0 32 0] [0] 0 0
r 1.000000000 _4_ RTR  --- 0 cbr 1000 [0 0 0 0] [energy 100.000000 ei 0.000 es 0.000 et 0.000 er 0.000] ------- [4:0 20:0 32 0] [0] 0 0
s 1.000000000 _4_ RTR  --- 0 AODV 48 [0 0 0 0] [energy 100.000000 ei 0.000 es 0.000 et 0.000 er 0.000] ------- [4:255 -1:255 30 0] [0x2 1 1 [20 0] [4 4]] (REQUEST)
N -t 1.000535 -n 6 -e 99.999746
N -t 1.000535 -n 14 -e 99.999746
N -t 1.000535 -n 3 -e 99.999746
N -t 1.000535 -n 19 -e 99.999746
N -t 1.000536 -n 5 -e 99.999746
N -t 1.000536 -n 10 -e 99.999746
N -t 1.000536 -n 2 -e 99.999746
N -t 1.000536 -n 18 -e 99.999746
N -t 1.000536 -n 21 -e 99.999746
N -t 1.000536 -n 13 -e 99.999746
N -t 1.000536 -n 0 -e 99.999746
N -t 1.000536 -n 20 -e 99.999746
N -t 1.000537 -n 7 -e 99.999746
N -t 1.000537 -n 24 -e 99.999746
N -t 1.000537 -n 17 -e 99.999746
N -t 1.000537 -n 1 -e 99.999746
r 1.001408298 _6_ RTR  --- 0 AODV 48 [0 ffffffff 4 800] [energy 99.999746 ei 0.000 es 0.000 et 0.000 er 0.000] ------- [4:255 -1:255 30 0] [0x2 1 1 [20 0] [4 4]] (REQUEST)
r 1.001408448 _14_ RTR  --- 0 AODV 48 [0 ffffffff 4 800] [energy 99.999746 ei 0.000 es 0.000 et 0.000 er 0.000] ------- [4:255 -1:255 30 0] [0x2 1 1 [20 0] [4 4]] (REQUEST)
r 1.001408467 _3_ RTR  --- 0 AODV 48 [0 ffffffff 4 800] [energy 99.999746 ei 0.000 es 0.000 et 0.000 er 0.000] ------- [4:255 -1:255 30 0] [0x2 1 1 [20 0] [4 4]] (REQUEST)
r 1.001408471 _19_ RTR  --- 0 AODV 48 [0 ffffffff 4 800] [energy 99.999746 ei 0.000 es 0.000 et 0.000 er 0.000] ------- [4:255 -1:255 30 0] [0x2 1 1 [20 0] [4 4]] (REQUEST)
r 1.001408758 _5_ RTR  --- 0 AODV 48 [0 ffffffff 4 800] [energy 99.999746 ei 0.000 es 0.000 et 0.000 er 0.000] ------- [4:255 -1:255 30 0] [0x2 1 1 [20 0] [4 4]] (REQUEST)
s 1.001550345 _6_ RTR  --- 0 AODV 48 [0 ffffffff 4 800] [energy 99.999746 ei 0.000 es 0.000 et 0.000 er 0.000] ------- [6:255 -1:255 29 0] [0x2 2 1 [20 0] [4 4]] (REQUEST)
N -t 1.001826 -n 4 -e 99.999237
N -t 1.001826 -n 5 -e 99.999491
N -t 1.001826 -n 3 -e 99.999491
N -t 1.001826 -n 19 -e 99.999491
N -t 1.001826 -n 14 -e 99.999491
N -t 1.001826 -n 21 -e 99.999491
N -t 1.001826 -n 13 -e 99.999491
N -t 1.001826 -n 10 -e 99.999491
N -t 1.001827 -n 0 -e 99.999491
N -t 1.001827 -n 7 -e 99.999491
N -t 1.001827 -n 2 -e 99.999491
N -t 1.001827 -n 18 -e 99.999491
N -t 1.001827 -n 20 -e 99.999491
N -t 1.001827 -n 24 -e 99.999491
N -t 1.001827 -n 17 -e 99.999491
s 1.002289675 _14_ RTR  --- 0 AODV 48 [0 ffffffff 4 800] [energy 99.999491 ei 0.000 es 0.000 et 0.000 er 0.001] ------- [14:255 -1:255 29 0] [0x2 2 1 [20 0] [4 4]] (REQUEST)
r 1.002698643 _4_ RTR  --- 0 AODV 48 [0 ffffffff 6 800] [energy 99.999237 ei 0.000 es 0.000 et 0.001 er 0.000] ------- [6:255 -1:255 29 0] [0x2 2 1 [20 0] [4 4]] (REQUEST)
r 1.002698811 _5_ RTR  --- 0 AODV 48 [0 ffffffff 6 800] [energy 99.999491 ei 0.000 es 0.000 et 0.000 er 0.001] ------- [6:255 -1:255 29 0] [0x2 2 1 [20 0] [4 4]] (REQUEST)
r 1.002699011 _3_ RTR  --- 0 AODV 48 [0 ffffffff 6 800] [energy 99.999491 ei 0.000 es 0.000 et 0.000 er 0.001] ------- [6:255 -1:255 29 0] [0x2 2 1 [20 0] [4 4]] (REQUEST)
r 1.002699046 _19_ RTR  --- 0 AODV 48 [0 ffffffff 6 800] [energy 99.999491 ei 0.000 es 0.000 et 0.000 er 0.001] ------- [6:255 -1:255 29 0] [0x2 2 1 [20 0] [4 4]] (REQUEST)
r 1.002699082 _14_ RTR  --- 0 AODV 48 [0 ffffffff 6 800] [energy 99.999491 ei 0.000 es 0.000 et 0.000 er 0.001] ------- [6:255 -1:255 29 0] [0x2 2 1 [20 0] [4 4]] (REQUEST)
N -t 1.002964 -n 19 -e 99.999237
N -t 1.002965 -n 4 -e 99.998982
N -t 1.002965 -n 2 -e 99.999237
N -t 1.002965 -n 3 -e 99.999237
N -t 1.002965 -n 10 -e 99.999237
N -t 1.002965 -n 18 -e 99.999237
N -t 1.002965 -n 6 -e 99.998982
N -t 1.002965 -n 5 -e 99.999237
N -t 1.002965 -n 17 -e 99.999237
N -t 1.002965 -n 20 -e 99.999237
N -t 1.002965 -n 1 -e 99.999491
N -t 1.002966 -n 24 -e 99.999237
N -t 1.002966 -n 15 -e 99.999746
N -t 1.002966 -n 21 -e 99.999237
N -t 1.002966 -n 9 -e 99.999746
N -t 1.002966 -n 13 -e 99.999237
N -t 1.002966 -n 0 -e 99.999237
r 1.003837329 _19_ RTR  --- 0 AODV 48 [0 ffffffff e 800] [energy 99.999237 ei 0.000 es 0.000 et 0.000 er 0.001] ------- [14:255 -1:255 29 0] [0x2 2 1 [20 0] [4 4]] (REQUEST)
r 1.003837529 _4_ RTR  --- 0 AODV 48 [0 ffffffff e 800] [energy 99.998982 ei 0.000 es 0.000 et 0.001 er 0.001] ------- [14:255 -1:255 29 0] [0x2 2 1 [20 0] [4 4]] (REQUEST)
r 1.003837599 _2_ RTR  --- 0 AODV 48 [0 ffffffff e 800] [energy 99.999237 ei 0.000 es 0.000 et 0.000 er 0.001] ------- [14:255 -1:255 29 0] [0x2 2 1 [20 0] [4 4]] (REQUEST)
r 1.003837666 _3_ RTR  --- 0 AODV 48 [0 ffffffff e 800] [energy 99.999237 ei 0.000 es 0.000 et 0.000 er 0.001] ------- [14:255 -1:255 29 0] [0x2 2 1 [20 0] [4 4]] (REQUEST)
r 1.003837784 _10_ RTR  --- 0 AODV 48 [0 ffffffff e 800] [energy 99.999237 ei 0.000 es 0.000 et 0.000 er 0.001] ------- [14:255 -1:255 29 0] [0x2 2 1 [20 0] [4 4]] (REQUEST)
r 1.003837800 _18_ RTR  --- 0 AODV 48 [0 ffffffff e 800] [energy 99.999237 ei 0.000 es 0.000 et 0.000 er 0.001] ------- [14:255 -1:255 29 0] [0x2 2 1 [20 0] [4 4]] (REQUEST)
r 1.003837818 _6_ RTR  --- 0 AODV 48 [0 ffffffff e 800] [energy 99.998982 ei 0.000 es 0.000 et 0.001 er 0.001] ------- [14:255 -1:255 29 0] [0x2 2 1 [20 0] [4 4]] (REQUEST)
s 1.004265745 _18_ RTR  --- 0 AODV 48 [0 ffffffff e 800] [energy 99.999237 ei 0.000 es 0.000 et 0.000 er 0.001] ------- [18:255 -1:255 28 0] [0x2 3 1 [20 0] [4 4]] (REQUEST)
N -t 1.004501 -n 2 -e 99.998982
N -t 1.004501 -n 17 -e 99.998982
N -t 1.004501 -n 19 -e 99.998982
N -t 1.004501 -n 14 -e 99.998728
N -t 1.004502 -n 1 -e 99.999237
N -t 1.004502 -n 20 -e 99.998982
N -t 1.004502 -n 15 -e 99.999491
N -t 1.004502 -n 9 -e 99.999491
N -t 1.004502 -n 4 -e 99.998728
N -t 1.004502 -n 24 -e 99.998982
N -t 1.004502 -n 10 -e 99.998982
N -t 1.004502 -n 3 -e 99.998982
N -t 1.004502 -n 6 -e 99.998728
N -t 1.004502 -n 11 -e 99.999746
N -t 1.004502 -n 23 -e 99.999746
N -t 1.004503 -n 8 -e 99.999746
N -t 1.004503 -n 5 -e 99.998982
s 1.004538376 _5_ RTR  --- 0 AODV 48 [0 ffffffff 4 800] [energy 99.998982 ei 0.000 es 0.000 et 0.000 er 0.001] ------- [5:255 -1:255 29 0] [0x2 2 1 [20 0] [4 4]] (REQUEST)
r 1.005374145 _2_ RTR  --- 0 AODV 48 [0 ffffffff 12 800] [energy 99.998982 ei 0.000 es 0.000 et 0.000 er 0.001] ------- [18:255 -1:255 28 0] [0x2 3 1 [20 0] [4 4]] (REQUEST)
r 1.005374297 _17_ RTR  --- 0 AODV 48 [0 ffffffff 12 800] [energy 99.998982 ei 0.000 es 0.000 et 0.000 er 0.001] ------- [18:255 -1:255 28 0] [0x2 3 1 [20 0] [4 4]] (REQUEST)
r 1.005374406 _19_ RTR  --- 0 AODV 48 [0 ffffffff 12 800] [energy 99.998982 ei 0.000 es 0.000 et 0.000 er 0.001] ------- [18:255 -1:255 28 0] [0x2 3 1 [20 0] [4 4]] (REQUEST)
r 1.005374463 _14_ RTR  --- 0 AODV 48 [0 ffffffff 12 800] [energy 99.998728 ei 0.000 es 0.000 et 0.001 er 0.001] ------- [18:255 -1:255 28 0] [0x2 3 1 [20 0] [4 4]] (REQUEST)
r 1.005374567 _1_ RTR  --- 0 AODV 48 [0 ffffffff 12 800] [energy 99.999237 ei 0.000 es 0.000 et 0.000 er 0.001] ------- [18:255 -1:255 28 0] [0x2 3 1 [20 0] [4 4]] (REQUEST)
s 1.005479238 _10_ RTR  --- 0 AODV 48 [0 ffffffff e 800] [energy 99.998982 ei 0.000 es 0.000 et 0.000 er 0.001] ------- [10:255 -1:255 28 0] [0x2 3 1 [20 0] [4 4]] (REQUEST)
s 1.005820201 _3_ RTR  --- 0 AODV 48 [0 ffffffff 4 800] [energy 99.998982 ei 0.000 es 0.000 et 0.000 er 0.001] ------- [3:255 -1:255 29 0] [0x2 2 1 [20 0] [4 4]] (REQUEST)
N -t 1.006104 -n 3 -e 99.998728
N -t 1.006105 -n 14 -e 99.998474
N -t 1.006105 -n 4 -e 99.998474
N -t 1.006105 -n 2 -e 99.998728
N -t 1.006105 -n 19 -e 99.998728
N -t 1.006105 -n 6 -e 99.998474
N -t 1.006105 -n 18 -e 99.998474
N -t 1.006105 -n 5 -e 99.998728
N -t 1.006106 -n 17 -e 99.998728
r 1.006977441 _3_ RTR  --- 0 AODV 48 [0 ffffffff a 800] [energy 99.998728 ei 0.000 es 0.000 et 0.000 er 0.001] ------- [10:255 -1:255 28 0] [0x2 3 1 [20 0] [4 4]] (REQUEST)
r 1.006977690 _14_ RTR  --- 0 AODV 48 [0 ffffffff a 800] [energy 99.998474 ei 0.000 es 0.000 et 0.001 er 0.001] ------- [10:255 -1:255 28 0] [0x2 3 1 [20 0] [4 4]] (REQUEST)
s 1.007122620 _1_ RTR  --- 0 AODV 48 [0 ffffffff 12 800] [energy 99.999237 ei 0.000 es 0.000 et 0.000 er 0.001] ------- [1:255 -1:255 27 0] [0x2 4 1 [20 0] [4 4]] (REQUEST)
N -t 1.007123 -n 10 -e 99.998219
N -t 1.007123 -n 4 -e 99.998219
N -t 1.007123 -n 14 -e 99.998219
N -t 1.007123 -n 6 -e 99.998219
N -t 1.007123 -n 19 -e 99.998474
N -t 1.007123 -n 2 -e 99.998474
N -t 1.007123 -n 5 -e 99.998474
N -t 1.007124 -n 18 -e 99.998219
N -t 1.007124 -n 21 -e 99.998982
N -t 1.007124 -n 13 -e 99.998982
N -t 1.007124 -n 17 -e 99.998474
N -t 1.007124 -n 7 -e 99.999237
N -t 1.007418 -n 15 -e 99.999237
N -t 1.007418 -n 9 -e 99.999237
N -t 1.007418 -n 17 -e 99.998385
N -t 1.007418 -n 20 -e 99.998728
N -t 1.007418 -n 24 -e 99.998728
N -t 1.007418 -n 18 -e 99.998131
N -t 1.007418 -n 11 -e 99.999491
N -t 1.007419 -n 23 -e 99.999491
N -t 1.007419 -n 8 -e 99.999491
N -t 1.007419 -n 2 -e 99.998385
N -t 1.007419 -n 19 -e 99.998385
N -t 1.007419 -n 14 -e 99.998130
N -t 1.007419 -n 22 -e 99.999746
N -t 1.007419 -n 16 -e 99.999746
N -t 1.007419 -n 4 -e 99.998130
r 1.007995893 _10_ RTR  --- 0 AODV 48 [0 ffffffff 3 800] [energy 99.998219 ei 0.000 es 0.000 et 0.001 er 0.001] ------- [3:255 -1:255 29 0] [0x2 2 1 [20 0] [4 4]] (REQUEST)
r 1.007995907 _4_ RTR  --- 0 AODV 48 [0 ffffffff 3 800] [energy 99.998130 ei 0.000 es 0.000 et 0.001 er 0.001] ------- [3:255 -1:255 29 0] [0x2 2 1 [20 0] [4 4]] (REQUEST)
r 1.007996025 _14_ RTR  --- 0 AODV 48 [0 ffffffff 3 800] [energy 99.998130 ei 0.000 es 0.000 et 0.001 er 0.001] ------- [3:255 -1:255 29 0] [0x2 2 1 [20 0] [4 4]] (REQUEST)
r 1.007996107 _6_ RTR  --- 0 AODV 48 [0 ffffffff 3 800] [energy 99.998219 ei 0.000 es 0.000 et 0.001 er 0.001] ------- [3:255 -1:255 29 0] [0x2 2 1 [20 0] [4 4]] (REQUEST)
r 1.008290788 _15_ RTR  --- 0 AODV 48 [0 ffffffff 1 800] [energy 99.999237 ei 0.000 es 0.000 et 0.000 er 0.001] ------- [1:255 -1:255 27 0] [0x2 4 1 [20 0] [4 4]] (REQUEST)
r 1.008290858 _9_ RTR  --- 0 AODV 48 [0 ffffffff 1 800] [energy 99.999237 ei 0.000 es 0.000 et 0.000 er 0.001] ------- [1:255 -1:255 27 0] [0x2 4 1 [20 0] [4 4]] (REQUEST)
r 1.008291022 _20_ RTR  --- 0 AODV 48 [0 ffffffff 1 800] [energy 99.998728 ei 0.000 es 0.000 et 0.000 er 0.001] ------- [1:255 -1:255 27 0] [0x2 4 1 [20 0] [4 4]] (REQUEST)
s 1.008291022 _20_ RTR  --- 0 AODV 44 [0 0 0 0] [energy 99.998728 ei 0.000 es 0.000 et 0.000 er 0.001] ------- [20:255 4:255 30 1] [0x4 1 [20 4] 10.000000] (REPLY)
r 1.008291383 _24_ RTR  --- 0 AODV 48 [0 ffffffff 1 800] [energy 99.998728 ei 0.000 es 0.000 et 0.000 er 0.001] ------- [1:255 -1:255 27 0] [0x2 4 1 [20 0] [4 4]] (REQUEST)
N -t 1.008406 -n 6 -e 99.997965
N -t 1.008406 -n 21 -e 99.998728
N -t 1.008406 -n 13 -e 99.998728
N -t 1.008406 -n 4 -e 99.997876
N -t 1.008406 -n 7 -e 99.998982
N -t 1.008406 -n 0 -e 99.998982
N -t 1.008406 -n 3 -e 99.997965
N -t 1.008407 -n 19 -e 99.998131
N -t 1.008407 -n 14 -e 99.997876
N -t 1.008407 -n 10 -e 99.997965
N -t 1.008407 -n 2 -e 99.998131
N -t 1.008407 -n 24 -e 99.998474
N -t 1.008407 -n 18 -e 99.997876
N -t 1.008746 -n 15 -e 99.999030
N -t 1.008746 -n 24 -e 99.998420
N -t 1.008746 -n 1 -e 99.998522
N -t 1.008747 -n 17 -e 99.998179
N -t 1.008747 -n 9 -e 99.999030
N -t 1.008747 -n 18 -e 99.997822
N -t 1.008747 -n 8 -e 99.999285
N -t 1.008747 -n 19 -e 99.998076
N -t 1.008747 -n 11 -e 99.999285
N -t 1.008747 -n 2 -e 99.998077
N -t 1.008747 -n 14 -e 99.997822
N -t 1.008747 -n 16 -e 99.999539
N -t 1.008747 -n 23 -e 99.999285
N -t 1.008747 -n 22 -e 99.999539
N -t 1.008747 -n 4 -e 99.997821
N -t 1.008748 -n 6 -e 99.997910
N -t 1.008748 -n 12 -e 99.999794
N -t 1.008748 -n 0 -e 99.998928
r 1.009278925 _6_ RTR  --- 0 AODV 48 [0 ffffffff 5 800] [energy 99.997910 ei 0.000 es 0.000 et 0.001 er 0.002] ------- [5:255 -1:255 29 0] [0x2 2 1 [20 0] [4 4]] (REQUEST)
r 1.009278931 _21_ RTR  --- 0 AODV 48 [0 ffffffff 5 800] [energy 99.998728 ei 0.000 es 0.000 et 0.000 er 0.001] ------- [5:255 -1:255 29 0] [0x2 2 1 [20 0] [4 4]] (REQUEST)
r 1.009279062 _13_ RTR  --- 0 AODV 48 [0 ffffffff 5 800] [energy 99.998728 ei 0.000 es 0.000 et 0.000 er 0.001] ------- [5:255 -1:255 29 0] [0x2 2 1 [20 0] [4 4]] (REQUEST)
r 1.009279219 _4_ RTR  --- 0 AODV 48 [0 ffffffff 5 800] [energy 99.997821 ei 0.000 es 0.000 et 0.001 er 0.002] ------- [5:255 -1:255 29 0] [0x2 2 1 [20 0] [4 4]] (REQUEST)
r 1.009279262 _7_ RTR  --- 0 AODV 48 [0 ffffffff 5 800] [energy 99.998982 ei 0.000 es 0.000 et 0.000 er 0.001] ------- [5:255 -1:255 29 0] [0x2 2 1 [20 0] [4 4]] (REQUEST)
s 1.009400025 _19_ RTR  --- 0 AODV 48 [0 ffffffff 4 800] [energy 99.998076 ei 0.000 es 0.000 et 0.000 er 0.002] ------- [19:255 -1:255 29 0] [0x2 2 1 [20 0] [4 4]] (REQUEST)
N -t 1.009570 -n 15 -e 99.998925
N -t 1.009570 -n 9 -e 99.998925
N -t 1.009570 -n 17 -e 99.998073
N -t 1.009570 -n 20 -e 99.998210
N -t 1.009570 -n 24 -e 99.998314
N -t 1.009570 -n 18 -e 99.997717
N -t 1.009570 -n 11 -e 99.999179
N -t 1.009570 -n 23 -e 99.999179
N -t 1.009571 -n 8 -e 99.999179
N -t 1.009571 -n 2 -e 99.997971
N -t 1.009571 -n 19 -e 99.997971
N -t 1.009571 -n 14 -e 99.997716
N -t 1.009571 -n 22 -e 99.999434
N -t 1.009571 -n 16 -e 99.999434
N -t 1.009571 -n 4 -e 99.997716
s 1.009610864 _17_ RTR  --- 0 AODV 48 [0 ffffffff 12 800] [energy 99.998073 ei 0.000 es 0.000 et 0.000 er 0.002] ------- [17:255 -1:255 27 0] [0x2 4 1 [20 0] [4 4]] (REQUEST)
N -t 1.009932 -n 15 -e 99.998834
N -t 1.009932 -n 24 -e 99.998223
N -t 1.009932 -n 1 -e 99.998219
N -t 1.009932 -n 17 -e 99.997982
N -t 1.009932 -n 9 -e 99.998834
N -t 1.009933 -n 18 -e 99.997626
N -t 1.009933 -n 8 -e 99.999088
N -t 1.009933 -n 19 -e 99.997880
N -t 1.009933 -n 11 -e 99.999088
N -t 1.009933 -n 2 -e 99.997880
N -t 1.009933 -n 14 -e 99.997625
N -t 1.009933 -n 16 -e 99.999342
N -t 1.009933 -n 23 -e 99.999088
N -t 1.009933 -n 22 -e 99.999342
N -t 1.009933 -n 4 -e 99.997625
N -t 1.009933 -n 6 -e 99.997819
N -t 1.009934 -n 12 -e 99.999702
N -t 1.009934 -n 0 -e 99.998837
N -t 1.010246 -n 15 -e 99.998627
N -t 1.010246 -n 9 -e 99.998627
N -t 1.010247 -n 17 -e 99.997776
N -t 1.010247 -n 20 -e 99.997821
N -t 1.010247 -n 24 -e 99.998017
N -t 1.010247 -n 18 -e 99.997419
N -t 1.010247 -n 11 -e 99.998882
N -t 1.010247 -n 23 -e 99.998882
N -t 1.010247 -n 8 -e 99.998882
N -t 1.010247 -n 2 -e 99.997673
N -t 1.010247 -n 19 -e 99.997673
N -t 1.010248 -n 14 -e 99.997419
N -t 1.010248 -n 22 -e 99.999136
N -t 1.010248 -n 16 -e 99.999136
N -t 1.010248 -n 4 -e 99.997418
N -t 1.010945 -n 15 -e 99.998536
N -t 1.010945 -n 24 -e 99.997925
N -t 1.010945 -n 1 -e 99.997715
N -t 1.010945 -n 17 -e 99.997685
N -t 1.010945 -n 9 -e 99.998536
N -t 1.010946 -n 18 -e 99.997328
N -t 1.010946 -n 8 -e 99.998790
N -t 1.010946 -n 19 -e 99.997582
N -t 1.010946 -n 11 -e 99.998790
N -t 1.010946 -n 2 -e 99.997582
N -t 1.010946 -n 14 -e 99.997327
N -t 1.010946 -n 16 -e 99.999045
N -t 1.010946 -n 23 -e 99.998790
N -t 1.010946 -n 22 -e 99.999045
N -t 1.010946 -n 4 -e 99.997327
N -t 1.010946 -n 6 -e 99.997728
N -t 1.010946 -n 12 -e 99.999611
N -t 1.010946 -n 0 -e 99.998746
N -t 1.011359 -n 15 -e 99.998430
N -t 1.011359 -n 24 -e 99.997820
N -t 1.011359 -n 1 -e 99.997610
N -t 1.011359 -n 17 -e 99.997579
N -t 1.011359 -n 9 -e 99.998430
N -t 1.011360 -n 18 -e 99.997222
N -t 1.011360 -n 8 -e 99.998685
N -t 1.011360 -n 19 -e 99.997476
N -t 1.011360 -n 11 -e 99.998685
N -t 1.011360 -n 2 -e 99.997477
N -t 1.011360 -n 14 -e 99.997222
N -t 1.011360 -n 16 -e 99.998939
N -t 1.011360 -n 23 -e 99.998685
N -t 1.011360 -n 22 -e 99.998939
N -t 1.011360 -n 4 -e 99.997221
N -t 1.011360 -n 6 -e 99.997622
N -t 1.011360 -n 12 -e 99.999506
N -t 1.011360 -n 0 -e 99.998640
s 1.011691188 _21_ RTR  --- 0 AODV 48 [0 ffffffff 5 800] [energy 99.998728 ei 0.000 es 0.000 et 0.000 er 0.001] ------- [21:255 -1:255 28 0] [0x2 3 1 [20 0] [4 4]] (REQUEST)
N -t 1.011721 -n 15 -e 99.998339
N -t 1.011721 -n 9 -e 99.998339
N -t 1.011721 -n 17 -e 99.997488
N -t 1.011721 -n 20 -e 99.997336
N -t 1.011722 -n 24 -e 99.997729
N -t 1.011722 -n 18 -e 99.997131
N -t 1.011722 -n 11 -e 99.998594
N -t 1.011722 -n 23 -e 99.998594
N -t 1.011722 -n 8 -e 99.998594
N -t 1.011722 -n 2 -e 99.997385
N -t 1.011722 -n 19 -e 99.997385
N -t 1.011722 -n 14 -e 99.997131
N -t 1.011723 -n 22 -e 99.998848
N -t 1.011723 -n 16 -e 99.998848
N -t 1.011723 -n 4 -e 99.997130
N -t 1.011866 -n 13 -e 99.998474
N -t 1.011867 -n 7 -e 99.998728
N -t 1.011867 -n 5 -e 99.997710
N -t 1.011867 -n 0 -e 99.998386
N -t 1.011867 -n 6 -e 99.997368
N -t 1.011867 -n 4 -e 99.996924
N -t 1.011868 -n 19 -e 99.997178
N -t 1.011868 -n 3 -e 99.997710
N -t 1.011868 -n 14 -e 99.996924
N -t 1.011868 -n 16 -e 99.998641
N -t 1.011868 -n 24 -e 99.997522
N -t 1.012036 -n 15 -e 99.998094
N -t 1.012036 -n 24 -e 99.997481
N -t 1.012036 -n 1 -e 99.997182
N -t 1.012036 -n 17 -e 99.997243
N -t 1.012036 -n 9 -e 99.998094
N -t 1.012036 -n 18 -e 99.996886
N -t 1.012036 -n 8 -e 99.998349
N -t 1.012037 -n 19 -e 99.997137
N -t 1.012037 -n 11 -e 99.998349
N -t 1.012037 -n 2 -e 99.997141
N -t 1.012037 -n 14 -e 99.996883
N -t 1.012037 -n 16 -e 99.998600
N -t 1.012037 -n 23 -e 99.998349
N -t 1.012037 -n 22 -e 99.998603
N -t 1.012037 -n 4 -e 99.996882
N -t 1.012037 -n 6 -e 99.997327
N -t 1.012037 -n 12 -e 99.999261
N -t 1.012037 -n 0 -e 99.998344
s 1.012200834 _2_ RTR  --- 0 AODV 48 [0 ffffffff e 800] [energy 99.997141 ei 0.000 es 0.000 et 0.000 er 0.003] ------- [2:255 -1:255 28 0] [0x2 3 1 [20 0] [4 4]] (REQUEST)
r 1.012739350 _13_ RTR  --- 0 AODV 48 [0 ffffffff 15 800] [energy 99.998474 ei 0.000 es 0.000 et 0.000 er 0.002] ------- [21:255 -1:255 28 0] [0x2 3 1 [20 0] [4 4]] (REQUEST)
r 1.012739591 _7_ RTR  --- 0 AODV 48 [0 ffffffff 15 800] [energy 99.998728 ei 0.000 es 0.000 et 0.000 er 0.001] ------- [21:255 -1:255 28 0] [0x2 3 1 [20 0] [4 4]] (REQUEST)
r 1.012739659 _5_ RTR  --- 0 AODV 48 [0 ffffffff 15 800] [energy 99.997710 ei 0.000 es 0.000 et 0.001 er 0.002] ------- [21:255 -1:255 28 0] [0x2 3 1 [20 0] [4 4]] (REQUEST)
r 1.012739747 _0_ RTR  --- 0 AODV 48 [0 ffffffff 15 800] [energy 99.998344 ei 0.000 es 0.000 et 0.000 er 0.002] ------- [21:255 -1:255 28 0] [0x2 3 1 [20 0] [4 4]] (REQUEST)
N -t 1.012862 -n 15 -e 99.998003
N -t 1.012862 -n 9 -e 99.998003
N -t 1.012862 -n 17 -e 99.997152
N -t 1.012862 -n 20 -e 99.996755
N -t 1.012863 -n 24 -e 99.997390
N -t 1.012863 -n 18 -e 99.996795
N -t 1.012863 -n 11 -e 99.998258
N -t 1.012863 -n 23 -e 99.998258
N -t 1.012863 -n 8 -e 99.998258
N -t 1.012863 -n 2 -e 99.997049
N -t 1.012863 -n 19 -e 99.997046
N -t 1.012863 -n 14 -e 99.996792
N -t 1.012863 -n 22 -e 99.998512
N -t 1.012863 -n 16 -e 99.998509
N -t 1.012864 -n 4 -e 99.996791
r 1.012876839 _1_ RTR  --- 0 AODV 44 [13a 1 14 800] [energy 99.997000 ei 0.000 es 0.000 et 0.001 er 0.002] ------- [20:255 4:255 30 1] [0x4 1 [20 4] 10.000000] (REPLY)
f 1.012876839 _1_ RTR  --- 0 AODV 44 [13a 1 14 800] [energy 99.997000 ei 0.000 es 0.000 et 0.001 er 0.002] ------- [20:255 4:255 29 18] [0x4 2 [20 4] 10.000000] (REPLY)
s 1.012951948 _15_ RTR  --- 0 AODV 48 [0 ffffffff 1 800] [energy 99.998003 ei 0.000 es 0.000 et 0.000 er 0.002] ------- [15:255 -1:255 26 0] [0x2 5 1 [20 0] [4 4]] (REQUEST)
N -t 1.013356 -n 15 -e 99.997797
N -t 1.013356 -n 9 -e 99.997797
N -t 1.013356 -n 17 -e 99.996945
N -t 1.013356 -n 20 -e 99.996549
N -t 1.013357 -n 24 -e 99.997183
N -t 1.013357 -n 18 -e 99.996589
N -t 1.013357 -n 11 -e 99.998051
N -t 1.013357 -n 23 -e 99.998051
N -t 1.013357 -n 8 -e 99.998051
N -t 1.013357 -n 2 -e 99.996843
N -t 1.013357 -n 19 -e 99.996840
N -t 1.013357 -n 14 -e 99.996585
N -t 1.013357 -n 22 -e 99.998306
N -t 1.013357 -n 16 -e 99.998303
N -t 1.013358 -n 4 -e 99.996585
N -t 1.014174 -n 1 -e 99.996333
N -t 1.014175 -n 9 -e 99.997542
N -t 1.014175 -n 15 -e 99.997542
N -t 1.014175 -n 18 -e 99.996334
N -t 1.014175 -n 20 -e 99.996294
N -t 1.014175 -n 2 -e 99.996589
N -t 1.014175 -n 24 -e 99.996929
N -t 1.014175 -n 11 -e 99.997797
N -t 1.014175 -n 19 -e 99.996585
N -t 1.014175 -n 23 -e 99.997797
N -t 1.014175 -n 14 -e 99.996331
N -t 1.014176 -n 8 -e 99.997797
N -t 1.014176 -n 4 -e 99.996330
N -t 1.014176 -n 6 -e 99.997072
N -t 1.014176 -n 10 -e 99.997710
N -t 1.014176 -n 3 -e 99.997456
N -t 1.014176 -n 22 -e 99.998051
r 1.015047469 _1_ RTR  --- 0 AODV 48 [0 ffffffff 11 800] [energy 99.996333 ei 0.000 es 0.000 et 0.002 er 0.002] ------- [17:255 -1:255 27 0] [0x2 4 1 [20 0] [4 4]] (REQUEST)
r 1.015047568 _9_ RTR  --- 0 AODV 48 [0 ffffffff 11 800] [energy 99.997542 ei 0.000 es 0.000 et 0.000 er 0.002] ------- [17:255 -1:255 27 0] [0x2 4 1 [20 0] [4 4]] (REQUEST)
r 1.015047632 _15_ RTR  --- 0 AODV 48 [0 ffffffff 11 800] [energy 99.997542 ei 0.000 es 0.000 et 0.000 er 0.002] ------- [17:255 -1:255 27 0] [0x2 4 1 [20 0] [4 4]] (REQUEST)
r 1.015047704 _18_ RTR  --- 0 AODV 48 [0 ffffffff 11 800] [energy 99.996334 ei 0.000 es 0.000 et 0.001 er 0.003] ------- [17:255 -1:255 27 0] [0x2 4 1 [20 0] [4 4]] (REQUEST)
r 1.015047742 _20_ RTR  --- 0 AODV 48 [0 ffffffff 11 800] [energy 99.996294 ei 0.000 es 0.000 et 0.001 er 0.002] ------- [17:255 -1:255 27 0] [0x2 4 1 [20 0] [4 4]] (REQUEST)
s 1.015213926 _9_ RTR  --- 0 AODV 48 [0 ffffffff 1 800] [energy 99.997542 ei 0.000 es 0.000 et 0.000 er 0.002] ------- [9:255 -1:255 26 0] [0x2 5 1 [20 0] [4 4]] (REQUEST)
N -t 1.015353 -n 2 -e 99.996483
N -t 1.015353 -n 17 -e 99.996331
N -t 1.015353 -n 19 -e 99.996480
N -t 1.015353 -n 14 -e 99.996225
N -t 1.015354 -n 1 -e 99.996227
N -t 1.015354 -n 20 -e 99.996189
N -t 1.015354 -n 15 -e 99.997437
N -t 1.015354 -n 9 -e 99.997437
N -t 1.015354 -n 4 -e 99.996225
N -t 1.015354 -n 24 -e 99.996823
N -t 1.015354 -n 10 -e 99.997605
N -t 1.015354 -n 3 -e 99.997350
N -t 1.015354 -n 6 -e 99.996967
N -t 1.015354 -n 11 -e 99.997691
N -t 1.015354 -n 23 -e 99.997691
N -t 1.015354 -n 8 -e 99.997691
N -t 1.015355 -n 5 -e 99.997605
N -t 1.015716 -n 15 -e 99.997346
N -t 1.015716 -n 9 -e 99.997346
N -t 1.015716 -n 17 -e 99.996240
N -t 1.015716 -n 20 -e 99.996098
N -t 1.015716 -n 24 -e 99.996732
N -t 1.015716 -n 18 -e 99.996032
N -t 1.015716 -n 11 -e 99.997600
N -t 1.015717 -n 23 -e 99.997600
N -t 1.015717 -n 8 -e 99.997600
N -t 1.015717 -n 2 -e 99.996392
N -t 1.015717 -n 19 -e 99.996388
N -t 1.015717 -n 14 -e 99.996134
N -t 1.015717 -n 22 -e 99.997960
N -t 1.015717 -n 16 -e 99.998211
N -t 1.015717 -n 4 -e 99.996134
N -t 1.016031 -n 2 -e 99.996185
N -t 1.016031 -n 17 -e 99.996033
N -t 1.016031 -n 19 -e 99.996182
N -t 1.016031 -n 14 -e 99.995928
N -t 1.016031 -n 1 -e 99.995838
N -t 1.016031 -n 20 -e 99.995891
N -t 1.016031 -n 15 -e 99.997139
N -t 1.016031 -n 9 -e 99.997139
N -t 1.016031 -n 4 -e 99.995927
N -t 1.016032 -n 24 -e 99.996526
N -t 1.016032 -n 10 -e 99.997398
N -t 1.016032 -n 3 -e 99.997144
N -t 1.016032 -n 6 -e 99.996760
N -t 1.016032 -n 11 -e 99.997394
N -t 1.016032 -n 23 -e 99.997394
N -t 1.016032 -n 8 -e 99.997394
N -t 1.016032 -n 5 -e 99.997398
s 1.016052751 _7_ RTR  --- 0 AODV 48 [0 ffffffff 5 800] [energy 99.998728 ei 0.000 es 0.000 et 0.000 er 0.001] ------- [7:255 -1:255 28 0] [0x2 3 1 [20 0] [4 4]] (REQUEST)
N -t 1.016308 -n 13 -e 99.998219
N -t 1.016308 -n 21 -e 99.997965
N -t 1.016308 -n 0 -e 99.998090
N -t 1.016309 -n 5 -e 99.997267
N -t 1.016309 -n 6 -e 99.996629
N -t 1.016309 -n 4 -e 99.995796
N -t 1.016310 -n 3 -e 99.997013
N -t 1.016729 -n 15 -e 99.997048
N -t 1.016729 -n 9 -e 99.997048
N -t 1.016729 -n 17 -e 99.995942
N -t 1.016730 -n 20 -e 99.995800
N -t 1.016730 -n 24 -e 99.996434
N -t 1.016730 -n 18 -e 99.995528
N -t 1.016730 -n 11 -e 99.997302
N -t 1.016730 -n 23 -e 99.997302
N -t 1.016730 -n 8 -e 99.997302
N -t 1.016730 -n 2 -e 99.996094
N -t 1.016730 -n 19 -e 99.996091
N -t 1.016731 -n 14 -e 99.995836
N -t 1.016731 -n 22 -e 99.997869
N -t 1.016731 -n 16 -e 99.998120
N -t 1.016731 -n 4 -e 99.995796
s 1.016912056 _24_ RTR  --- 0 AODV 48 [0 ffffffff 1 800] [energy 99.996434 ei 0.000 es 0.000 et 0.000 er 0.004] ------- [24:255 -1:255 26 0] [0x2 5 1 [20 0] [4 4]] (REQUEST)
r 1.017180993 _13_ RTR  --- 0 AODV 48 [0 ffffffff 7 800] [energy 99.998219 ei 0.000 es 0.000 et 0.000 er 0.002] ------- [7:255 -1:255 28 0] [0x2 3 1 [20 0] [4 4]] (REQUEST)
r 1.017181155 _21_ RTR  --- 0 AODV 48 [0 ffffffff 7 800] [energy 99.997965 ei 0.000 es 0.000 et 0.001 er 0.002] ------- [7:255 -1:255 28 0] [0x2 3 1 [20 0] [4 4]] (REQUEST)
r 1.017181444 _0_ RTR  --- 0 AODV 48 [0 ffffffff 7 800] [energy 99.998090 ei 0.000 es 0.000 et 0.000 er 0.002] ------- [7:255 -1:255 28 0] [0x2 3 1 [20 0] [4 4]] (REQUEST)
N -t 1.017213 -n 1 -e 99.995402
N -t 1.017214 -n 9 -e 99.996794
N -t 1.017214 -n 20 -e 99.995546
N -t 1.017214 -n 17 -e 99.995688
N -t 1.017214 -n 24 -e 99.996180
N -t 1.017214 -n 11 -e 99.997048
N -t 1.017214 -n 8 -e 99.997048
N -t 1.017214 -n 18 -e 99.995274
N -t 1.017214 -n 23 -e 99.997048
N -t 1.017215 -n 19 -e 99.995836
N -t 1.017215 -n 22 -e 99.997614
N -t 1.017215 -n 2 -e 99.995840
N -t 1.017215 -n 14 -e 99.995582
N -t 1.017215 -n 16 -e 99.997866
N -t 1.017215 -n 4 -e 99.995541
N -t 1.017215 -n 12 -e 99.999006
s 1.017790128 _13_ RTR  --- 0 AODV 48 [0 ffffffff 5 800] [energy 99.998219 ei 0.000 es 0.000 et 0.000 er 0.002] ------- [13:255 -1:255 28 0] [0x2 3 1 [20 0] [4 4]] (REQUEST)
r 1.018086464 _1_ RTR  --- 0 AODV 48 [0 ffffffff f 800] [energy 99.995402 ei 0.000 es 0.000 et 0.002 er 0.002] ------- [15:255 -1:255 26 0] [0x2 5 1 [20 0] [4 4]] (REQUEST)
r 1.018086613 _9_ RTR  --- 0 AODV 48 [0 ffffffff f 800] [energy 99.996794 ei 0.000 es 0.000 et 0.000 er 0.003] ------- [15:255 -1:255 26 0] [0x2 5 1 [20 0] [4 4]] (REQUEST)
r 1.018086623 _20_ RTR  --- 0 AODV 48 [0 ffffffff f 800] [energy 99.995546 ei 0.000 es 0.000 et 0.001 er 0.003] ------- [15:255 -1:255 26 0] [0x2 5 1 [20 0] [4 4]] (REQUEST)
r 1.018086773 _17_ RTR  --- 0 AODV 48 [0 ffffffff f 800] [energy 99.995688 ei 0.000 es 0.000 et 0.001 er 0.004] ------- [15:255 -1:255 26 0] [0x2 5 1 [20 0] [4 4]] (REQUEST)
r 1.018086931 _24_ RTR  --- 0 AODV 48 [0 ffffffff f 800] [energy 99.996180 ei 0.000 es 0.000 et 0.000 er 0.004] ------- [15:255 -1:255 26 0] [0x2 5 1 [20 0] [4 4]] (REQUEST)
N -t 1.018185 -n 21 -e 99.997710
N -t 1.018185 -n 7 -e 99.997965
N -t 1.018186 -n 0 -e 99.997835
N -t 1.018186 -n 5 -e 99.997013
N -t 1.018186 -n 6 -e 99.996375
N -t 1.018186 -n 4 -e 99.995287
N -t 1.018187 -n 3 -e 99.996758
N -t 1.018187 -n 19 -e 99.995582
N -t 1.018187 -n 14 -e 99.995328
N -t 1.018187 -n 16 -e 99.997611
N -t 1.018252 -n 1 -e 99.995147
N -t 1.018252 -n 15 -e 99.996285
N -t 1.018252 -n 17 -e 99.995433
N -t 1.018252 -n 20 -e 99.995291
N -t 1.018252 -n 11 -e 99.996794
N -t 1.018252 -n 23 -e 99.996794
N -t 1.018253 -n 24 -e 99.995926
N -t 1.018253 -n 18 -e 99.995019
N -t 1.018253 -n 8 -e 99.996794
N -t 1.018253 -n 2 -e 99.995585
N -t 1.018253 -n 19 -e 99.995562
N -t 1.018253 -n 22 -e 99.997360
N -t 1.018253 -n 14 -e 99.995308
N -t 1.018253 -n 16 -e 99.997591
r 1.019058291 _21_ RTR  --- 0 AODV 48 [0 ffffffff d 800] [energy 99.997710 ei 0.000 es 0.000 et 0.001 er 0.002] ------- [13:255 -1:255 28 0] [0x2 3 1 [20 0] [4 4]] (REQUEST)
r 1.019058370 _7_ RTR  --- 0 AODV 48 [0 ffffffff d 800] [energy 99.997965 ei 0.000 es 0.000 et 0.001 er 0.002] ------- [13:255 -1:255 28 0] [0x2 3 1 [20 0] [4 4]] (REQUEST)
r 1.019058696 _0_ RTR  --- 0 AODV 48 [0 ffffffff d 800] [energy 99.997835 ei 0.000 es 0.000 et 0.000 er 0.002] ------- [13:255 -1:255 28 0] [0x2 3 1 [20 0] [4 4]] (REQUEST)
r 1.019058730 _5_ RTR  --- 0 AODV 48 [0 ffffffff d 800] [energy 99.997013 ei 0.000 es 0.000 et 0.001 er 0.002] ------- [13:255 -1:255 28 0] [0x2 3 1 [20 0] [4 4]] (REQUEST)
r 1.019124851 _1_ RTR  --- 0 AODV 48 [0 ffffffff 9 800] [energy 99.995147 ei 0.000 es 0.000 et 0.002 er 0.003] ------- [9:255 -1:255 26 0] [0x2 5 1 [20 0] [4 4]] (REQUEST)
r 1.019124932 _15_ RTR  --- 0 AODV 48 [0 ffffffff 9 800] [energy 99.996285 ei 0.000 es 0.000 et 0.001 er 0.003] ------- [9:255 -1:255 26 0] [0x2 5 1 [20 0] [4 4]] (REQUEST)
r 1.019125027 _17_ RTR  --- 0 AODV 48 [0 ffffffff 9 800] [energy 99.995433 ei 0.000 es 0.000 et 0.001 er 0.004] ------- [9:255 -1:255 26 0] [0x2 5 1 [20 0] [4 4]] (REQUEST)
r 1.019125238 _20_ RTR  --- 0 AODV 48 [0 ffffffff 9 800] [energy 99.995291 ei 0.000 es 0.000 et 0.001 er 0.003] ------- [9:255 -1:255 26 0] [0x2 5 1 [20 0] [4 4]] (REQUEST)
r 1.019125249 _11_ RTR  --- 0 AODV 48 [0 ffffffff 9 800] [energy 99.996794 ei 0.000 es 0.000 et 0.000 er 0.003] ------- [9:255 -1:255 26 0] [0x2 5 1 [20 0] [4 4]] (REQUEST)
r 1.019125383 _23_ RTR  --- 0 AODV 48 [0 ffffffff 9 800] [energy 99.996794 ei 0.000 es 0.000 et 0.000 er 0.003] ------- [9:255 -1:255 26 0] [0x2 5 1 [20 0] [4 4]] (REQUEST)