n -t * -s 0  -x 707.8628231342243 -y 40.374733526434156 -Z 0 -z 50  -v circle -c green
n -t * -s 1  -x 222.68297347365086 -y 506.18813731995795 -Z 0 -z 50  -v circle -c green
n -t * -s 2  -x 380.02992066556118 -y 130.3013008694636 -Z 0 -z 50  -v circle -c green
n -t * -s 3  -x 467.45464134377181 -y 408.12565181782736 -Z 0 -z 50  -v circle -c green
n -t * -s 4  -x 209.78762777977977 -y 720.52807580704246 -Z 0 -z 50  -v circle -c green
n -t * -s 5  -x 394.21261120318093 -y 425.08519348925222 -Z 0 -z 50  -v circle -c green
n -t * -s 6  -x 508.5587173274526 -y 277.08969799666187 -Z 0 -z 50  -v circle -c green
n -t * -s 7  -x 308.19278736980294 -y 636.94185942269019 -Z 0 -z 50  -v circle -c green
n -t * -s 8  -x 352.28914644210096 -y 738.94740191239282 -Z 0 -z 50  -v circle -c green
n -t * -s 9  -x 361.22992698160459 -y 153.10622386313332 -Z 0 -z 50  -v circle -c green
n -t * -s 10  -x 570.38058460242144 -y 309.18833031746948 -Z 0 -z 50  -v circle -c green
n -t * -s 11  -x 660.33455713667649 -y 194.3214368980012 -Z 0 -z 50  -v circle -c green
n -t * -s 12  -x 450.48743088286716 -y 273.80067867869542 -Z 0 -z 50  -v circle -c green
n -t * -s 13  -x 210.00819104258352 -y 486.13348216104021 -Z 0 -z 50  -v circle -c green
n -t * -s 14  -x 56.793350752812508 -y 420.67688201585634 -Z 0 -z 50  -v circle -c green
n -t * -s 15  -x 895.44505062300948 -y 595.97265673613765 -Z 0 -z 50  -v circle -c green
n -t * -s 16  -x 640.55220533188071 -y 608.73201033507098 -Z 0 -z 50  -v circle -c green
n -t * -s 17  -x 698.62212692323249 -y 593.66975901353624 -Z 0 -z 50  -v circle -c green
n -t * -s 18  -x 259.54967563019579 -y 201.11865336127516 -Z 0 -z 50  -v circle -c green
n -t * -s 19  -x 251.50880368962365 -y 86.770889203423124 -Z 0 -z 50  -v circle -c green
n -t * -s 20  -x 947.91855241540759 -y 533.68835660335071 -Z 0 -z 50  -v circle -c green
n -t * -s 21  -x 125.26179064310239 -y 219.93227089752082 -Z 0 -z 50  -v circle -c green
n -t * -s 22  -x 502.09621829078355 -y 584.91265055952249 -Z 0 -z 50  -v circle -c green
n -t * -s 23  -x 283.64744236862634 -y 210.05111160224823 -Z 0 -z 50  -v circle -c green
n -t * -s 24  -x 911.29087373208756 -y 52.571852157158702 -Z 0 -z 50  -v circle -c green
V -t * -v 1.0a5 -a 0
W -t * -x 1000 -y 800
A -t * -n 1 -p 0 -o 0x7fffffff -c 30 -a 1
A -t * -h 1 -m 1073741823 -s 0
c -t * -i 0 -n red
v -t 0.01 -e sim_annotation 0.01 1 Network Deployment
n -t 0.100000 -s 0 -x 707.862823 -y 40.374734 -U -15.057472 -V 37.057692 -T 15.870116
n -t 0.100000 -s 1 -x 222.682973 -y 506.188137 -U 38.341437 -V -11.398870 -T 11.815298
n -t 0.100000 -s 2 -x 380.029921 -y 130.301301 -U 27.628418 -V 28.925258 -T 18.804058
n -t 0.100000 -s 3 -x 467.454641 -y 408.125652 -U -8.550053 -V -39.075524 -T 9.794511
n -t 0.100000 -s 4 -x 209.787628 -y 720.528076 -U 21.712837 -V -33.593939 -T 19.012540
n -t 0.100000 -s 5 -x 394.212611 -y 425.085193 -U 36.156570 -V 17.108549 -T 16.117510
n -t 0.100000 -s 6 -x 508.558717 -y 277.089698 -U 11.389507 -V 38.344219 -T 9.144326
n -t 0.100000 -s 7 -x 308.192787 -y 636.941859 -U 20.156932 -V -34.549936 -T 16.896840
n -t 0.100000 -s 8 -x 352.289146 -y 738.947402 -U 31.378277 -V -24.807332 -T 13.143582
n -t 0.100000 -s 9 -x 361.229927 -y 153.106224 -U -36.745358 -V 15.804387 -T 1.468590
n -t 0.100000 -s 10 -x 570.380585 -y 309.188330 -U -35.762409 -V -17.917870 -T 10.718153
n -t 0.100000 -s 11 -x 660.334557 -y 194.321437 -U -39.130250 -V 8.295993 -T 16.769745
n -t 0.100000 -s 12 -x 450.487431 -y 273.800679 -U -23.090733 -V 32.662181 -T 9.834416
n -t 0.100000 -s 13 -x 210.008191 -y 486.133482 -U 29.127927 -V 27.414666 -T 10.071115
n -t 0.100000 -s 14 -x 56.793351 -y 420.676882 -U 33.326096 -V -22.121738 -T 13.114594
n -t 0.100000 -s 15 -x 895.445051 -y 595.972657 -U -7.800178 -V 39.232094 -T 1.075132
n -t 0.100000 -s 16 -x 640.552205 -y 608.732010 -U 27.917135 -V 28.646703 -T 5.113313
n -t 0.100000 -s 17 -x 698.622127 -y 593.669759 -U -36.661384 -V -15.998216 -T 17.671082
n -t 0.100000 -s 18 -x 259.549676 -y 201.118653 -U 37.401211 -V 14.182715 -T 18.845519
n -t 0.100000 -s 19 -x 251.508804 -y 86.770889 -U 13.264739 -V 37.736543 -T 17.474729
n -t 0.100000 -s 20 -x 947.918552 -y 533.688357 -U -12.442934 -V -38.015436 -T 6.188993
n -t 0.100000 -s 21 -x 125.261791 -y 219.932271 -U 13.580454 -V 37.624078 -T 8.751109
n -t 0.100000 -s 22 -x 502.096218 -y 584.912651 -U 15.127972 -V -37.028968 -T 11.985744
n -t 0.100000 -s 23 -x 283.647442 -y 210.051112 -U -22.505628 -V -33.068062 -T 4.346783
n -t 0.100000 -s 24 -x 911.290874 -y 52.571852 -U -39.287343 -V 7.516960 -T 20.132914
+ -t 1.000000000 -s 4 -d -1 -p cbr -e 1000 -c 2 -a 0 -i 0 -k AGT 
- -t 1.000000000 -s 4 -d -1 -p cbr -e 1000 -c 2 -a 0 -i 0 -k AGT
h -t 1.000000000 -s 4 -d -1 -p cbr -e 1000 -c 2 -a 0 -i 0 -k AGT
m -t 1 -s 4 -n m -c blue -h square
m -t 1 -s 20 -n m -c magenta -h square
n -t 1 -s 4 -S DLABEL -l "SENDER" -L ""
n -t 1 -s 20 -S DLABEL -l "RCV" -L ""
+ -t 1.000000000 -s 4 -d -1 -p AODV -e 48 -c 2 -a 0 -i 0 -k RTR 
- -t 1.000000000 -s 4 -d -1 -p AODV -e 48 -c 2 -a 0 -i 0 -k RTR
h -t 1.000000000 -s 4 -d -1 -p AODV -e 48 -c 2 -a 0 -i 0 -k RTR
r -t 1.001408429 -s 7 -d -1 -p AODV -e 48 -c 2 -a 0 -i 0 -k RTR
r -t 1.001408512 -s 8 -d -1 -p AODV -e 48 -c 2 -a 0 -i 0 -k RTR
r -t 1.001408599 -s 13 -d -1 -p AODV -e 48 -c 2 -a 0 -i 0 -k RTR
r -t 1.001408654 -s 1 -d -1 -p AODV -e 48 -c 2 -a 0 -i 0 -k RTR
+ -t 1.001550475 -s 7 -d -1 -p AODV -e 48 -c 2 -a 0 -i 0 -k RTR 
- -t 1.001550475 -s 7 -d -1 -p AODV -e 48 -c 2 -a 0 -i 0 -k RTR
h -t 1.001550475 -s 7 -d -1 -p AODV -e 48 -c 2 -a 0 -i 0 -k RTR
+ -t 1.002289738 -s 8 -d -1 -p AODV -e 48 -c 2 -a 0 -i 0 -k RTR 
- -t 1.002289738 -s 8 -d -1 -p AODV -e 48 -c 2 -a 0 -i 0 -k RTR
h -t 1.002289738 -s 8 -d -1 -p AODV -e 48 -c 2 -a 0 -i 0 -k RTR
r -t 1.002658886 -s 8 -d -1 -p AODV -e 48 -c 2 -a 0 -i 0 -k RTR
r -t 1.002658904 -s 4 -d -1 -p AODV -e 48 -c 2 -a 0 -i 0 -k RTR
r -t 1.002658908 -s 1 -d -1 -p AODV -e 48 -c 2 -a 0 -i 0 -k RTR
r -t 1.002658912 -s 13 -d -1 -p AODV -e 48 -c 2 -a 0 -i 0 -k RTR
r -t 1.002659120 -s 5 -d -1 -p AODV -e 48 -c 2 -a 0 -i 0 -k RTR
r -t 1.002659132 -s 22 -d -1 -p AODV -e 48 -c 2 -a 0 -i 0 -k RTR
r -t 1.003757298 -s 7 -d -1 -p AODV -e 48 -c 2 -a 0 -i 0 -k RTR
r -t 1.003757398 -s 4 -d -1 -p AODV -e 48 -c 2 -a 0 -i 0 -k RTR
r -t 1.003757598 -s 22 -d -1 -p AODV -e 48 -c 2 -a 0 -i 0 -k RTR
+ -t 1.005749923 -s 22 -d -1 -p AODV -e 48 -c 2 -a 0 -i 0 -k RTR 
- -t 1.005749923 -s 22 -d -1 -p AODV -e 48 -c 2 -a 0 -i 0 -k RTR
h -t 1.005749923 -s 22 -d -1 -p AODV -e 48 -c 2 -a 0 -i 0 -k RTR
+ -t 1.005820332 -s 13 -d -1 -p AODV -e 48 -c 2 -a 0 -i 0 -k RTR 
- -t 1.005820332 -s 13 -d -1 -p AODV -e 48 -c 2 -a 0 -i 0 -k RTR
h -t 1.005820332 -s 13 -d -1 -p AODV -e 48 -c 2 -a 0 -i 0 -k RTR
r -t 1.006738396 -s 5 -d -1 -p AODV -e 48 -c 2 -a 0 -i 0 -k RTR
r -t 1.006738430 -s 17 -d -1 -p AODV -e 48 -c 2 -a 0 -i 0 -k RTR
r -t 1.006738495 -s 16 -d -1 -p AODV -e 48 -c 2 -a 0 -i 0 -k RTR
r -t 1.006738547 -s 3 -d -1 -p AODV -e 48 -c 2 -a 0 -i 0 -k RTR
r -t 1.006738579 -s 7 -d -1 -p AODV -e 48 -c 2 -a 0 -i 0 -k RTR
r -t 1.006738634 -s 8 -d -1 -p AODV -e 48 -c 2 -a 0 -i 0 -k RTR
r -t 1.006738721 -s 6 -d -1 -p AODV -e 48 -c 2 -a 0 -i 0 -k RTR
+ -t 1.007876512 -s 17 -d -1 -p AODV -e 48 -c 2 -a 0 -i 0 -k RTR 
- -t 1.007876512 -s 17 -d -1 -p AODV -e 48 -c 2 -a 0 -i 0 -k RTR
h -t 1.007876512 -s 17 -d -1 -p AODV -e 48 -c 2 -a 0 -i 0 -k RTR
+ -t 1.008486774 -s 6 -d -1 -p AODV -e 48 -c 2 -a 0 -i 0 -k RTR 
- -t 1.008486774 -s 6 -d -1 -p AODV -e 48 -c 2 -a 0 -i 0 -k RTR
h -t 1.008486774 -s 6 -d -1 -p AODV -e 48 -c 2 -a 0 -i 0 -k RTR
r -t 1.008540950 -s 1 -d -1 -p AODV -e 48 -c 2 -a 0 -i 0 -k RTR
r -t 1.008541299 -s 7 -d -1 -p AODV -e 48 -c 2 -a 0 -i 0 -k RTR
r -t 1.008541461 -s 4 -d -1 -p AODV -e 48 -c 2 -a 0 -i 0 -k RTR
r -t 1.008541483 -s 14 -d -1 -p AODV -e 48 -c 2 -a 0 -i 0 -k RTR
r -t 1.008541541 -s 5 -d -1 -p AODV -e 48 -c 2 -a 0 -i 0 -k RTR
+ -t 1.009047771 -s 5 -d -1 -p AODV -e 48 -c 2 -a 0 -i 0 -k RTR 
- -t 1.009047771 -s 5 -d -1 -p AODV -e 48 -c 2 -a 0 -i 0 -k RTR
h -t 1.009047771 -s 5 -d -1 -p AODV -e 48 -c 2 -a 0 -i 0 -k RTR
+ -t 1.009400209 -s 1 -d -1 -p AODV -e 48 -c 2 -a 0 -i 0 -k RTR 
- -t 1.009400209 -s 1 -d -1 -p AODV -e 48 -c 2 -a 0 -i 0 -k RTR
h -t 1.009400209 -s 1 -d -1 -p AODV -e 48 -c 2 -a 0 -i 0 -k RTR
r -t 1.010016023 -s 3 -d -1 -p AODV -e 48 -c 2 -a 0 -i 0 -k RTR
r -t 1.010016229 -s 12 -d -1 -p AODV -e 48 -c 2 -a 0 -i 0 -k RTR
r -t 1.010016244 -s 22 -d -1 -p AODV -e 48 -c 2 -a 0 -i 0 -k RTR
r -t 1.010016298 -s 6 -d -1 -p AODV -e 48 -c 2 -a 0 -i 0 -k RTR
r -t 1.010016366 -s 1 -d -1 -p AODV -e 48 -c 2 -a 0 -i 0 -k RTR
r -t 1.010016387 -s 10 -d -1 -p AODV -e 48 -c 2 -a 0 -i 0 -k RTR
r -t 1.010016415 -s 7 -d -1 -p AODV -e 48 -c 2 -a 0 -i 0 -k RTR
r -t 1.010016449 -s 13 -d -1 -p AODV -e 48 -c 2 -a 0 -i 0 -k RTR
+ -t 1.010975114 -s 3 -d -1 -p AODV -e 48 -c 2 -a 0 -i 0 -k RTR 
- -t 1.010975114 -s 3 -d -1 -p AODV -e 48 -c 2 -a 0 -i 0 -k RTR
h -t 1.010975114 -s 3 -d -1 -p AODV -e 48 -c 2 -a 0 -i 0 -k RTR
r -t 1.011034388 -s 10 -d -1 -p AODV -e 48 -c 2 -a 0 -i 0 -k RTR
r -t 1.011034581 -s 3 -d -1 -p AODV -e 48 -c 2 -a 0 -i 0 -k RTR
r -t 1.011034598 -s 12 -d -1 -p AODV -e 48 -c 2 -a 0 -i 0 -k RTR
r -t 1.011034807 -s 11 -d -1 -p AODV -e 48 -c 2 -a 0 -i 0 -k RTR
r -t 1.011034825 -s 5 -d -1 -p AODV -e 48 -c 2 -a 0 -i 0 -k RTR
r -t 1.011034940 -s 2 -d -1 -p AODV -e 48 -c 2 -a 0 -i 0 -k RTR
r -t 1.011035096 -s 22 -d -1 -p AODV -e 48 -c 2 -a 0 -i 0 -k RTR
r -t 1.011035097 -s 9 -d -1 -p AODV -e 48 -c 2 -a 0 -i 0 -k RTR
r -t 1.011035117 -s 18 -d -1 -p AODV -e 48 -c 2 -a 0 -i 0 -k RTR
+ -t 1.011122362 -s 14 -d -1 -p AODV -e 48 -c 2 -a 0 -i 0 -k RTR 
- -t 1.011122362 -s 14 -d -1 -p AODV -e 48 -c 2 -a 0 -i 0 -k RTR
h -t 1.011122362 -s 14 -d -1 -p AODV -e 48 -c 2 -a 0 -i 0 -k RTR
r -t 1.012332832 -s 12 -d -1 -p AODV -e 48 -c 2 -a 0 -i 0 -k RTR
r -t 1.012332833 -s 5 -d -1 -p AODV -e 48 -c 2 -a 0 -i 0 -k RTR
r -t 1.012332863 -s 6 -d -1 -p AODV -e 48 -c 2 -a 0 -i 0 -k RTR
r -t 1.012332953 -s 10 -d -1 -p AODV -e 48 -c 2 -a 0 -i 0 -k RTR
r -t 1.012333205 -s 22 -d -1 -p AODV -e 48 -c 2 -a 0 -i 0 -k RTR
r -t 1.012333323 -s 2 -d -1 -p AODV -e 48 -c 2 -a 0 -i 0 -k RTR
r -t 1.012333346 -s 18 -d -1 -p AODV -e 48 -c 2 -a 0 -i 0 -k RTR
r -t 1.012333370 -s 1 -d -1 -p AODV -e 48 -c 2 -a 0 -i 0 -k RTR
r -t 1.012333372 -s 11 -d -1 -p AODV -e 48 -c 2 -a 0 -i 0 -k RTR
r -t 1.012333393 -s 9 -d -1 -p AODV -e 48 -c 2 -a 0 -i 0 -k RTR
r -t 1.013331457 -s 13 -d -1 -p AODV -e 48 -c 2 -a 0 -i 0 -k RTR
r -t 1.013331801 -s 7 -d -1 -p AODV -e 48 -c 2 -a 0 -i 0 -k RTR
r -t 1.013331964 -s 5 -d -1 -p AODV -e 48 -c 2 -a 0 -i 0 -k RTR
r -t 1.013332021 -s 14 -d -1 -p AODV -e 48 -c 2 -a 0 -i 0 -k RTR
r -t 1.013332023 -s 4 -d -1 -p AODV -e 48 -c 2 -a 0 -i 0 -k RTR
r -t 1.013332159 -s 3 -d -1 -p AODV -e 48 -c 2 -a 0 -i 0 -k RTR
+ -t 1.013447064 -s 11 -d -1 -p AODV -e 48 -c 2 -a 0 -i 0 -k RTR 
- -t 1.013447064 -s 11 -d -1 -p AODV -e 48 -c 2 -a 0 -i 0 -k RTR
h -t 1.013447064 -s 11 -d -1 -p AODV -e 48 -c 2 -a 0 -i 0 -k RTR
r -t 1.014350536 -s 21 -d -1 -p AODV -e 48 -c 2 -a 0 -i 0 -k RTR
r -t 1.014350641 -s 13 -d -1 -p AODV -e 48 -c 2 -a 0 -i 0 -k RTR
r -t 1.014350672 -s 1 -d -1 -p AODV -e 48 -c 2 -a 0 -i 0 -k RTR
r -t 1.014714942 -s 16 -d -1 -p AODV -e 48 -c 2 -a 0 -i 0 -k RTR
r -t 1.014715521 -s 15 -d -1 -p AODV -e 48 -c 2 -a 0 -i 0 -k RTR
+ -t 1.015335772 -s 16 -d -1 -p AODV -e 48 -c 2 -a 0 -i 0 -k RTR 
- -t 1.015335772 -s 16 -d -1 -p AODV -e 48 -c 2 -a 0 -i 0 -k RTR
h -t 1.015335772 -s 16 -d -1 -p AODV -e 48 -c 2 -a 0 -i 0 -k RTR
r -t 1.016058440 -s 10 -d -1 -p AODV -e 48 -c 2 -a 0 -i 0 -k RTR
r -t 1.016058505 -s 0 -d -1 -p AODV -e 48 -c 2 -a 0 -i 0 -k RTR
r -t 1.016058529 -s 6 -d -1 -p AODV -e 48 -c 2 -a 0 -i 0 -k RTR
r -t 1.016058754 -s 12 -d -1 -p AODV -e 48 -c 2 -a 0 -i 0 -k RTR
r -t 1.016058767 -s 2 -d -1 -p AODV -e 48 -c 2 -a 0 -i 0 -k RTR
r -t 1.016058811 -s 3 -d -1 -p AODV -e 48 -c 2 -a 0 -i 0 -k RTR
+ -t 1.016166588 -s 0 -d -1 -p AODV -e 48 -c 2 -a 0 -i 0 -k RTR 
- -t 1.016166588 -s 0 -d -1 -p AODV -e 48 -c 2 -a 0 -i 0 -k RTR
h -t 1.016166588 -s 0 -d -1 -p AODV -e 48 -c 2 -a 0 -i 0 -k RTR
+ -t 1.016939297 -s 12 -d -1 -p AODV -e 48 -c 2 -a 0 -i 0 -k RTR 
- -t 1.016939297 -s 12 -d -1 -p AODV -e 48 -c 2 -a 0 -i 0 -k RTR
h -t 1.016939297 -s 12 -d -1 -p AODV -e 48 -c 2 -a 0 -i 0 -k RTR
r -t 1.017455073 -s 11 -d -1 -p AODV -e 48 -c 2 -a 0 -i 0 -k RTR
r -t 1.017455195 -s 24 -d -1 -p AODV -e 48 -c 2 -a 0 -i 0 -k RTR
+ -t 1.017808587 -s 9 -d -1 -p AODV -e 48 -c 2 -a 0 -i 0 -k RTR 
- -t 1.017808587 -s 9 -d -1 -p AODV -e 48 -c 2 -a 0 -i 0 -k RTR
h -t 1.017808587 -s 9 -d -1 -p AODV -e 48 -c 2 -a 0 -i 0 -k RTR
r -t 1.017902211 -s 15 -d -1 -p AODV -e 48 -c 2 -a 0 -i 0 -k RTR
+ -t 1.018637060 -s 10 -d -1 -p AODV -e 48 -c 2 -a 0 -i 0 -k RTR 
- -t 1.018637060 -s 10 -d -1 -p AODV -e 48 -c 2 -a 0 -i 0 -k RTR
h -t 1.018637060 -s 10 -d -1 -p AODV -e 48 -c 2 -a 0 -i 0 -k RTR
+ -t 1.018657436 -s 18 -d -1 -p AODV -e 48 -c 2 -a 0 -i 0 -k RTR 
- -t 1.018657436 -s 18 -d -1 -p AODV -e 48 -c 2 -a 0 -i 0 -k RTR
h -t 1.018657436 -s 18 -d -1 -p AODV -e 48 -c 2 -a 0 -i 0 -k RTR
r -t 1.019036778 -s 18 -d -1 -p AODV -e 48 -c 2 -a 0 -i 0 -k RTR
r -t 1.019036805 -s 23 -d -1 -p AODV -e 48 -c 2 -a 0 -i 0 -k RTR
r -t 1.019036849 -s 2 -d -1 -p AODV -e 48 -c 2 -a 0 -i 0 -k RTR
r -t 1.019036849 -s 19 -d -1 -p AODV -e 48 -c 2 -a 0 -i 0 -k RTR
r -t 1.019037153 -s 12 -d -1 -p AODV -e 48 -c 2 -a 0 -i 0 -k RTR
r -t 1.019037282 -s 21 -d -1 -p AODV -e 48 -c 2 -a 0 -i 0 -k RTR
r -t 1.019037387 -s 6 -d -1 -p AODV -e 48 -c 2 -a 0 -i 0 -k RTR
r -t 1.019037398 -s 3 -d -1 -p AODV -e 48 -c 2 -a 0 -i 0 -k RTR
r -t 1.019037402 -s 10 -d -1 -p AODV -e 48 -c 2 -a 0 -i 0 -k RTR
+ -t 1.019546006 -s 2 -d -1 -p AODV -e 48 -c 2 -a 0 -i 0 -k RTR 
- -t 1.019546006 -s 2 -d -1 -p AODV -e 48 -c 2 -a 0 -i 0 -k RTR
h -t 1.019546006 -s 2 -d -1 -p AODV -e 48 -c 2 -a 0 -i 0 -k RTR
r -t 1.019935491 -s 6 -d -1 -p AODV -e 48 -c 2 -a 0 -i 0 -k RTR
r -t 1.019935764 -s 12 -d -1 -p AODV -e 48 -c 2 -a 0 -i 0 -k RTR
r -t 1.019935773 -s 3 -d -1 -p AODV -e 48 -c 2 -a 0 -i 0 -k RTR
r -t 1.019935820 -s 11 -d -1 -p AODV -e 48 -c 2 -a 0 -i 0 -k RTR
r -t 1.019936017 -s 5 -d -1 -p AODV -e 48 -c 2 -a 0 -i 0 -k RTR
r -t 1.019936033 -s 2 -d -1 -p AODV -e 48 -c 2 -a 0 -i 0 -k RTR
r -t 1.019936216 -s 9 -d -1 -p AODV -e 48 -c 2 -a 0 -i 0 -k RTR
r -t 1.020914296 -s 9 -d -1 -p AODV -e 48 -c 2 -a 0 -i 0 -k RTR
r -t 1.020914451 -s 18 -d -1 -p AODV -e 48 -c 2 -a 0 -i 0 -k RTR
r -t 1.020914514 -s 23 -d -1 -p AODV -e 48 -c 2 -a 0 -i 0 -k RTR
r -t 1.020914520 -s 19 -d -1 -p AODV -e 48 -c 2 -a 0 -i 0 -k RTR
r -t 1.020914529 -s 12 -d -1 -p AODV -e 48 -c 2 -a 0 -i 0 -k RTR
r -t 1.020914664 -s 10 -d -1 -p AODV -e 48 -c 2 -a 0 -i 0 -k RTR
r -t 1.020914675 -s 6 -d -1 -p AODV -e 48 -c 2 -a 0 -i 0 -k RTR
r -t 1.020914773 -s 3 -d -1 -p AODV -e 48 -c 2 -a 0 -i 0 -k RTR
r -t 1.020914778 -s 11 -d -1 -p AODV -e 48 -c 2 -a 0 -i 0 -k RTR
r -t 1.022032606 -s 23 -d -1 -p AODV -e 48 -c 2 -a 0 -i 0 -k RTR
r -t 1.022032642 -s 9 -d -1 -p AODV -e 48 -c 2 -a 0 -i 0 -k RTR
r -t 1.022032776 -s 19 -d -1 -p AODV -e 48 -c 2 -a 0 -i 0 -k RTR
r -t 1.022032869 -s 2 -d -1 -p AODV -e 48 -c 2 -a 0 -i 0 -k RTR
r -t 1.022032989 -s 21 -d -1 -p AODV -e 48 -c 2 -a 0 -i 0 -k RTR
r -t 1.022032992 -s 12 -d -1 -p AODV -e 48 -c 2 -a 0 -i 0 -k RTR
r -t 1.022033214 -s 3 -d -1 -p AODV -e 48 -c 2 -a 0 -i 0 -k RTR
r -t 1.022033269 -s 6 -d -1 -p AODV -e 48 -c 2 -a 0 -i 0 -k RTR
r -t 1.023131240 -s 3 -d -1 -p AODV -e 48 -c 2 -a 0 -i 0 -k RTR
r -t 1.023131293 -s 6 -d -1 -p AODV -e 48 -c 2 -a 0 -i 0 -k RTR
r -t 1.023131354 -s 10 -d -1 -p AODV -e 48 -c 2 -a 0 -i 0 -k RTR
r -t 1.023131448 -s 5 -d -1 -p AODV -e 48 -c 2 -a 0 -i 0 -k RTR
r -t 1.023131488 -s 2 -d -1 -p AODV -e 48 -c 2 -a 0 -i 0 -k RTR
r -t 1.023131532 -s 18 -d -1 -p AODV -e 48 -c 2 -a 0 -i 0 -k RTR
r -t 1.023131559 -s 9 -d -1 -p AODV -e 48 -c 2 -a 0 -i 0 -k RTR
r -t 1.023131684 -s 23 -d -1 -p AODV -e 48 -c 2 -a 0 -i 0 -k RTR
r -t 1.023131725 -s 11 -d -1 -p AODV -e 48 -c 2 -a 0 -i 0 -k RTR
r -t 1.023131812 -s 19 -d -1 -p AODV -e 48 -c 2 -a 0 -i 0 -k RTR
+ -t 1.023224972 -s 21 -d -1 -p AODV -e 48 -c 2 -a 0 -i 0 -k RTR 
- -t 1.023224972 -s 21 -d -1 -p AODV -e 48 -c 2 -a 0 -i 0 -k RTR
h -t 1.023224972 -s 21 -d -1 -p AODV -e 48 -c 2 -a 0 -i 0 -k RTR
+ -t 1.023293722 -s 19 -d -1 -p AODV -e 48 -c 2 -a 0 -i 0 -k RTR 
- -t 1.023293722 -s 19 -d -1 -p AODV -e 48 -c 2 -a 0 -i 0 -k RTR
h -t 1.023293722 -s 19 -d -1 -p AODV -e 48 -c 2 -a 0 -i 0 -k RTR
+ -t 1.023628999 -s 15 -d -1 -p AODV -e 48 -c 2 -a 0 -i 0 -k RTR 
- -t 1.023628999 -s 15 -d -1 -p AODV -e 48 -c 2 -a 0 -i 0 -k RTR
h -t 1.023628999 -s 15 -d -1 -p AODV -e 48 -c 2 -a 0 -i 0 -k RTR
+ -t 1.024141434 -s 24 -d -1 -p AODV -e 48 -c 2 -a 0 -i 0 -k RTR 
- -t 1.024141434 -s 24 -d -1 -p AODV -e 48 -c 2 -a 0 -i 0 -k RTR
h -t 1.024141434 -s 24 -d -1 -p AODV -e 48 -c 2 -a 0 -i 0 -k RTR
r -t 1.024261915 -s 23 -d -1 -p AODV -e 48 -c 2 -a 0 -i 0 -k RTR
r -t 1.024261984 -s 9 -d -1 -p AODV -e 48 -c 2 -a 0 -i 0 -k RTR
r -t 1.024262047 -s 18 -d -1 -p AODV -e 48 -c 2 -a 0 -i 0 -k RTR
r -t 1.024262209 -s 2 -d -1 -p AODV -e 48 -c 2 -a 0 -i 0 -k RTR
r -t 1.024262333 -s 21 -d -1 -p AODV -e 48 -c 2 -a 0 -i 0 -k RTR
r -t 1.024262543 -s 12 -d -1 -p AODV -e 48 -c 2 -a 0 -i 0 -k RTR
+ -t 1.024585202 -s 23 -d -1 -p AODV -e 48 -c 2 -a 0 -i 0 -k RTR 
- -t 1.024585202 -s 23 -d -1 -p AODV -e 48 -c 2 -a 0 -i 0 -k RTR
h -t 1.024585202 -s 23 -d -1 -p AODV -e 48 -c 2 -a 0 -i 0 -k RTR
r -t 1.025057473 -s 20 -d -1 -p AODV -e 48 -c 2 -a 0 -i 0 -k RTR
+ -t 1.025057473 -s 20 -d 15 -p AODV -e 44 -c 2 -a 0 -i 0 -k RTR 
- -t 1.025057473 -s 20 -d 15 -p AODV -e 44 -c 2 -a 0 -i 0 -k RTR
h -t 1.025057473 -s 20 -d 15 -p AODV -e 44 -c 2 -a 0 -i 0 -k RTR
r -t 1.025057739 -s 16 -d -1 -p AODV -e 48 -c 2 -a 0 -i 0 -k RTR
r -t 1.025057765 -s 17 -d -1 -p AODV -e 48 -c 2 -a 0 -i 0 -k RTR
r -t 1.025330039 -s 0 -d -1 -p AODV -e 48 -c 2 -a 0 -i 0 -k RTR
r -t 1.025440819 -s 23 -d -1 -p AODV -e 48 -c 2 -a 0 -i 0 -k RTR
r -t 1.025440846 -s 14 -d -1 -p AODV -e 48 -c 2 -a 0 -i 0 -k RTR
r -t 1.025440871 -s 18 -d -1 -p AODV -e 48 -c 2 -a 0 -i 0 -k RTR
r -t 1.025440943 -s 19 -d -1 -p AODV -e 48 -c 2 -a 0 -i 0 -k RTR
r -t 1.025441027 -s 9 -d -1 -p AODV -e 48 -c 2 -a 0 -i 0 -k RTR
r -t 1.026638975 -s 18 -d -1 -p AODV -e 48 -c 2 -a 0 -i 0 -k RTR
r -t 1.026639011 -s 19 -d -1 -p AODV -e 48 -c 2 -a 0 -i 0 -k RTR
r -t 1.026639037 -s 9 -d -1 -p AODV -e 48 -c 2 -a 0 -i 0 -k RTR
r -t 1.026639301 -s 2 -d -1 -p AODV -e 48 -c 2 -a 0 -i 0 -k RTR
r -t 1.026639305 -s 21 -d -1 -p AODV -e 48 -c 2 -a 0 -i 0 -k RTR
r -t 1.026639512 -s 12 -d -1 -p AODV -e 48 -c 2 -a 0 -i 0 -k RTR
+ -t 1.030631233 -s 15 -d 17 -p AODV -e 44 -c 2 -a 0 -i 0 -k RTR 
- -t 1.030631233 -s 15 -d 17 -p AODV -e 44 -c 2 -a 0 -i 0 -k RTR
h -t 1.030631233 -s 15 -d 17 -p AODV -e 44 -c 2 -a 0 -i 0 -k RTR
+ -t 1.035423603 -s 17 -d 22 -p AODV -e 44 -c 2 -a 0 -i 0 -k RTR 
- -t 1.035423603 -s 17 -d 22 -p AODV -e 44 -c 2 -a 0 -i 0 -k RTR
h -t 1.035423603 -s 17 -d 22 -p AODV -e 44 -c 2 -a 0 -i 0 -k RTR
+ -t 1.040874118 -s 22 -d 7 -p AODV -e 44 -c 2 -a 0 -i 0 -k RTR 
- -t 1.040874118 -s 22 -d 7 -p AODV -e 44 -c 2 -a 0 -i 0 -k RTR
h -t 1.040874118 -s 22 -d 7 -p AODV -e 44 -c 2 -a 0 -i 0 -k RTR
+ -t 1.046245711 -s 7 -d 4 -p AODV -e 44 -c 2 -a 0 -i 0 -k RTR 
- -t 1.046245711 -s 7 -d 4 -p AODV -e 44 -c 2 -a 0 -i 0 -k RTR
h -t 1.046245711 -s 7 -d 4 -p AODV -e 44 -c 2 -a 0 -i 0 -k RTR
+ -t 1.051335711 -s 4 -d 7 -p cbr -e 1020 -c 2 -a 0 -i 0 -k RTR 
- -t 1.051335711 -s 4 -d 7 -p cbr -e 1020 -c 2 -a 0 -i 0 -k RTR
h -t 1.051335711 -s 4 -d 7 -p cbr -e 1020 -c 2 -a 0 -i 0 -k RTR
+ -t 1.061440997 -s 7 -d 22 -p cbr -e 1020 -c 2 -a 0 -i 0 -k RTR 
- -t 1.061440997 -s 7 -d 22 -p cbr -e 1020 -c 2 -a 0 -i 0 -k RTR
h -t 1.061440997 -s 7 -d 22 -p cbr -e 1020 -c 2 -a 0 -i 0 -k RTR
+ -t 1.071226964 -s 22 -d 17 -p cbr -e 1020 -c 2 -a 0 -i 0 -k RTR 
- -t 1.071226964 -s 22 -d 17 -p cbr -e 1020 -c 2 -a 0 -i 0 -k RTR
h -t 1.071226964 -s 22 -d 17 -p cbr -e 1020 -c 2 -a 0 -i 0 -k RTR
+ -t 1.081112455 -s 17 -d 15 -p cbr -e 1020 -c 2 -a 0 -i 0 -k RTR 
- -t 1.081112455 -s 17 -d 15 -p cbr -e 1020 -c 2 -a 0 -i 0 -k RTR
h -t 1.081112455 -s 17 -d 15 -p cbr -e 1020 -c 2 -a 0 -i 0 -k RTR
+ -t 1.090918776 -s 15 -d 20 -p cbr -e 1020 -c 2 -a 0 -i 0 -k RTR 
- -t 1.090918776 -s 15 -d 20 -p cbr -e 1020 -c 2 -a 0 -i 0 -k RTR
h -t 1.090918776 -s 15 -d 20 -p cbr -e 1020 -c 2 -a 0 -i 0 -k RTR
+ -t 1.100000000 -s 4 -d -1 -p cbr -e 1000 -c 2 -a 0 -i 1 -k AGT 
- -t 1.100000000 -s 4 -d -1 -p cbr -e 1000 -c 2 -a 0 -i 1 -k AGT
h -t 1.100000000 -s 4 -d -1 -p cbr -e 1000 -c 2 -a 0 -i 1 -k AGT
+ -t 1.100000000 -s 4 -d 7 -p cbr -e 1020 -c 2 -a 0 -i 1 -k RTR 
- -t 1.100000000 -s 4 -d 7 -p cbr -e 1020 -c 2 -a 0 -i 1 -k RTR
h -t 1.100000000 -s 4 -d 7 -p cbr -e 1020 -c 2 -a 0 -i 1 -k RTR
r -t 1.100904246 -s 20 -d 20 -p cbr -e 1020 -c 2 -a 0 -i 0 -k AGT
+ -t 1.109901286 -s 7 -d 22 -p cbr -e 1020 -c 2 -a 0 -i 1 -k RTR 
- -t 1.109901286 -s 7 -d 22 -p cbr -e 1020 -c 2 -a 0 -i 1 -k RTR
h -t 1.109901286 -s 7 -d 22 -p cbr -e 1020 -c 2 -a 0 -i 1 -k RTR
+ -t 1.119727251 -s 22 -d 17 -p cbr -e 1020 -c 2 -a 0 -i 1 -k RTR 
- -t 1.119727251 -s 22 -d 17 -p cbr -e 1020 -c 2 -a 0 -i 1 -k RTR
h -t 1.119727251 -s 22 -d 17 -p cbr -e 1020 -c 2 -a 0 -i 1 -k RTR
+ -t 1.129532719 -s 17 -d 15 -p cbr -e 1020 -c 2 -a 0 -i 1 -k RTR 
- -t 1.129532719 -s 17 -d 15 -p cbr -e 1020 -c 2 -a 0 -i 1 -k RTR
h -t 1.129532719 -s 17 -d 15 -p cbr -e 1020 -c 2 -a 0 -i 1 -k RTR
+ -t 1.139219061 -s 15 -d 20 -p cbr -e 1020 -c 2 -a 0 -i 1 -k RTR 
- -t 1.139219061 -s 15 -d 20 -p cbr -e 1020 -c 2 -a 0 -i 1 -k RTR
h -t 1.139219061 -s 15 -d 20 -p cbr -e 1020 -c 2 -a 0 -i 1 -k RTR
r -t 1.148884564 -s 20 -d 20 -p cbr -e 1020 -c 2 -a 0 -i 1 -k AGT
+ -t 1.200000000 -s 4 -d -1 -p cbr -e 1000 -c 2 -a 0 -i 2 -k AGT 
- -t 1.200000000 -s 4 -d -1 -p cbr -e 1000 -c 2 -a 0 -i 2 -k AGT
h -t 1.200000000 -s 4 -d -1 -p cbr -e 1000 -c 2 -a 0 -i 2 -k AGT
+ -t 1.200000000 -s 4 -d 7 -p cbr -e 1020 -c 2 -a 0 -i 2 -k RTR 
- -t 1.200000000 -s 4 -d 7 -p cbr -e 1020 -c 2 -a 0 -i 2 -k RTR
h -t 1.200000000 -s 4 -d 7 -p cbr -e 1020 -c 2 -a 0 -i 2 -k RTR
+ -t 1.210001285 -s 7 -d 22 -p cbr -e 1020 -c 2 -a 0 -i 2 -k RTR 
- -t 1.210001285 -s 7 -d 22 -p cbr -e 1020 -c 2 -a 0 -i 2 -k RTR
h -t 1.210001285 -s 7 -d 22 -p cbr -e 1020 -c 2 -a 0 -i 2 -k RTR
+ -t 1.220087246 -s 22 -d 17 -p cbr -e 1020 -c 2 -a 0 -i 2 -k RTR 
- -t 1.220087246 -s 22 -d 17 -p cbr -e 1020 -c 2 -a 0 -i 2 -k RTR
h -t 1.220087246 -s 22 -d 17 -p cbr -e 1020 -c 2 -a 0 -i 2 -k RTR
+ -t 1.229772668 -s 17 -d 15 -p cbr -e 1020 -c 2 -a 0 -i 2 -k RTR 
- -t 1.229772668 -s 17 -d 15 -p cbr -e 1020 -c 2 -a 0 -i 2 -k RTR
h -t 1.229772668 -s 17 -d 15 -p cbr -e 1020 -c 2 -a 0 -i 2 -k RTR
+ -t 1.239699051 -s 15 -d 20 -p cbr -e 1020 -c 2 -a 0 -i 2 -k RTR 
- -t 1.239699051 -s 15 -d 20 -p cbr -e 1020 -c 2 -a 0 -i 2 -k RTR
h -t 1.239699051 -s 15 -d 20 -p cbr -e 1020 -c 2 -a 0 -i 2 -k RTR
r -t 1.249384601 -s 20 -d 20 -p cbr -e 1020 -c 2 -a 0 -i 2 -k AGT
+ -t 1.300000000 -s 4 -d -1 -p cbr -e 1000 -c 2 -a 0 -i 3 -k AGT 
- -t 1.300000000 -s 4 -d -1 -p cbr -e 1000 -c 2 -a 0 -i 3 -k AGT
h -t 1.300000000 -s 4 -d -1 -p cbr -e 1000 -c 2 -a 0 -i 3 -k AGT
+ -t 1.300000000 -s 4 -d 7 -p cbr -e 1020 -c 2 -a 0 -i 3 -k RTR 
- -t 1.300000000 -s 4 -d 7 -p cbr -e 1020 -c 2 -a 0 -i 3 -k RTR
h -t 1.300000000 -s 4 -d 7 -p cbr -e 1020 -c 2 -a 0 -i 3 -k RTR
+ -t 1.309781284 -s 7 -d 22 -p cbr -e 1020 -c 2 -a 0 -i 3 -k RTR 
- -t 1.309781284 -s 7 -d 22 -p cbr -e 1020 -c 2 -a 0 -i 3 -k RTR
h -t 1.309781284 -s 7 -d 22 -p cbr -e 1020 -c 2 -a 0 -i 3 -k RTR
+ -t 1.319927242 -s 22 -d 17 -p cbr -e 1020 -c 2 -a 0 -i 3 -k RTR 
- -t 1.319927242 -s 22 -d 17 -p cbr -e 1020 -c 2 -a 0 -i 3 -k RTR
h -t 1.319927242 -s 22 -d 17 -p cbr -e 1020 -c 2 -a 0 -i 3 -k RTR
+ -t 1.329772618 -s 17 -d 15 -p cbr -e 1020 -c 2 -a 0 -i 3 -k RTR 
- -t 1.329772618 -s 17 -d 15 -p cbr -e 1020 -c 2 -a 0 -i 3 -k RTR
h -t 1.329772618 -s 17 -d 15 -p cbr -e 1020 -c 2 -a 0 -i 3 -k RTR
+ -t 1.339619040 -s 15 -d 20 -p cbr -e 1020 -c 2 -a 0 -i 3 -k RTR 
- -t 1.339619040 -s 15 -d 20 -p cbr -e 1020 -c 2 -a 0 -i 3 -k RTR
h -t 1.339619040 -s 15 -d 20 -p cbr -e 1020 -c 2 -a 0 -i 3 -k RTR
r -t 1.349524623 -s 20 -d 20 -p cbr -e 1020 -c 2 -a 0 -i 3 -k AGT
+ -t 1.400000000 -s 4 -d -1 -p cbr -e 1000 -c 2 -a 0 -i 4 -k AGT 
- -t 1.400000000 -s 4 -d -1 -p cbr -e 1000 -c 2 -a 0 -i 4 -k AGT
h -t 1.400000000 -s 4 -d -1 -p cbr -e 1000 -c 2 -a 0 -i 4 -k AGT
+ -t 1.400000000 -s 4 -d 7 -p cbr -e 1020 -c 2 -a 0 -i 4 -k RTR 
- -t 1.400000000 -s 4 -d 7 -p cbr -e 1020 -c 2 -a 0 -i 4 -k RTR
h -t 1.400000000 -s 4 -d 7 -p cbr -e 1020 -c 2 -a 0 -i 4 -k RTR
+ -t 1.409401284 -s 7 -d 22 -p cbr -e 1020 -c 2 -a 0 -i 4 -k RTR 
- -t 1.409401284 -s 7 -d 22 -p cbr -e 1020 -c 2 -a 0 -i 4 -k RTR
h -t 1.409401284 -s 7 -d 22 -p cbr -e 1020 -c 2 -a 0 -i 4 -k RTR
+ -t 1.419607237 -s 22 -d 17 -p cbr -e 1020 -c 2 -a 0 -i 4 -k RTR 
- -t 1.419607237 -s 22 -d 17 -p cbr -e 1020 -c 2 -a 0 -i 4 -k RTR
h -t 1.419607237 -s 22 -d 17 -p cbr -e 1020 -c 2 -a 0 -i 4 -k RTR
+ -t 1.429852569 -s 17 -d 15 -p cbr -e 1020 -c 2 -a 0 -i 4 -k RTR 
- -t 1.429852569 -s 17 -d 15 -p cbr -e 1020 -c 2 -a 0 -i 4 -k RTR
h -t 1.429852569 -s 17 -d 15 -p cbr -e 1020 -c 2 -a 0 -i 4 -k RTR
+ -t 1.439739031 -s 15 -d 20 -p cbr -e 1020 -c 2 -a 0 -i 4 -k RTR 
- -t 1.439739031 -s 15 -d 20 -p cbr -e 1020 -c 2 -a 0 -i 4 -k RTR
h -t 1.439739031 -s 15 -d 20 -p cbr -e 1020 -c 2 -a 0 -i 4 -k RTR
r -t 1.449544647 -s 20 -d 20 -p cbr -e 1020 -c 2 -a 0 -i 4 -k AGT
+ -t 1.500000000 -s 4 -d -1 -p cbr -e 1000 -c 2 -a 0 -i 5 -k AGT 
- -t 1.500000000 -s 4 -d -1 -p cbr -e 1000 -c 2 -a 0 -i 5 -k AGT
h -t 1.500000000 -s 4 -d -1 -p cbr -e 1000 -c 2 -a 0 -i 5 -k AGT
+ -t 1.500000000 -s 4 -d 7 -p cbr -e 1020 -c 2 -a 0 -i 5 -k RTR 
- -t 1.500000000 -s 4 -d 7 -p cbr -e 1020 -c 2 -a 0 -i 5 -k RTR
h -t 1.500000000 -s 4 -d 7 -p cbr -e 1020 -c 2 -a 0 -i 5 -k RTR
+ -t 1.509501283 -s 7 -d 22 -p cbr -e 1020 -c 2 -a 0 -i 5 -k RTR 
- -t 1.509501283 -s 7 -d 22 -p cbr -e 1020 -c 2 -a 0 -i 5 -k RTR
h -t 1.509501283 -s 7 -d 22 -p cbr -e 1020 -c 2 -a 0 -i 5 -k RTR
+ -t 1.519347232 -s 22 -d 17 -p cbr -e 1020 -c 2 -a 0 -i 5 -k RTR 
- -t 1.519347232 -s 22 -d 17 -p cbr -e 1020 -c 2 -a 0 -i 5 -k RTR
h -t 1.519347232 -s 22 -d 17 -p cbr -e 1020 -c 2 -a 0 -i 5 -k RTR
+ -t 1.529392521 -s 17 -d 15 -p cbr -e 1020 -c 2 -a 0 -i 5 -k RTR 
- -t 1.529392521 -s 17 -d 15 -p cbr -e 1020 -c 2 -a 0 -i 5 -k RTR
h -t 1.529392521 -s 17 -d 15 -p cbr -e 1020 -c 2 -a 0 -i 5 -k RTR
+ -t 1.554941521 -s 17 -d -1 -p AODV -e 48 -c 2 -a 0 -i 0 -k RTR 
- -t 1.554941521 -s 17 -d -1 -p AODV -e 48 -c 2 -a 0 -i 0 -k RTR
h -t 1.554941521 -s 17 -d -1 -p AODV -e 48 -c 2 -a 0 -i 0 -k RTR
r -t 1.556429814 -s 16 -d -1 -p AODV -e 48 -c 2 -a 0 -i 0 -k RTR
r -t 1.556429946 -s 22 -d -1 -p AODV -e 48 -c 2 -a 0 -i 0 -k RTR
+ -t 1.556429946 -s 22 -d 17 -p AODV -e 44 -c 2 -a 0 -i 0 -k RTR 
- -t 1.556429946 -s 22 -d 17 -p AODV -e 44 -c 2 -a 0 -i 0 -k RTR
h -t 1.556429946 -s 22 -d 17 -p AODV -e 44 -c 2 -a 0 -i 0 -k RTR
r -t 1.556430295 -s 5 -d -1 -p AODV -e 48 -c 2 -a 0 -i 0 -k RTR
+ -t 1.561224975 -s 16 -d -1 -p AODV -e 48 -c 2 -a 0 -i 0 -k RTR 
- -t 1.561224975 -s 16 -d -1 -p AODV -e 48 -c 2 -a 0 -i 0 -k RTR
h -t 1.561224975 -s 16 -d -1 -p AODV -e 48 -c 2 -a 0 -i 0 -k RTR
+ -t 1.563927227 -s 5 -d -1 -p AODV -e 48 -c 2 -a 0 -i 0 -k RTR 
- -t 1.563927227 -s 5 -d -1 -p AODV -e 48 -c 2 -a 0 -i 0 -k RTR
h -t 1.563927227 -s 5 -d -1 -p AODV -e 48 -c 2 -a 0 -i 0 -k RTR
r -t 1.564809108 -s 17 -d -1 -p AODV -e 48 -c 2 -a 0 -i 0 -k RTR
r -t 1.564809472 -s 22 -d -1 -p AODV -e 48 -c 2 -a 0 -i 0 -k RTR
r -t 1.564809500 -s 15 -d -1 -p AODV -e 48 -c 2 -a 0 -i 0 -k RTR
+ -t 1.564809500 -s 15 -d 16 -p AODV -e 44 -c 2 -a 0 -i 0 -k RTR 
- -t 1.564809500 -s 15 -d 16 -p AODV -e 44 -c 2 -a 0 -i 0 -k RTR
h -t 1.564809500 -s 15 -d 16 -p AODV -e 44 -c 2 -a 0 -i 0 -k RTR
+ -t 1.569492305 -s 16 -d 17 -p AODV -e 44 -c 2 -a 0 -i 0 -k RTR 
- -t 1.569492305 -s 16 -d 17 -p AODV -e 44 -c 2 -a 0 -i 0 -k RTR
h -t 1.569492305 -s 16 -d 17 -p AODV -e 44 -c 2 -a 0 -i 0 -k RTR
r -t 1.572733250 -s 3 -d -1 -p AODV -e 48 -c 2 -a 0 -i 0 -k RTR
r -t 1.572733287 -s 22 -d -1 -p AODV -e 48 -c 2 -a 0 -i 0 -k RTR
r -t 1.572733357 -s 12 -d -1 -p AODV -e 48 -c 2 -a 0 -i 0 -k RTR
r -t 1.572733385 -s 6 -d -1 -p AODV -e 48 -c 2 -a 0 -i 0 -k RTR
r -t 1.572733493 -s 1 -d -1 -p AODV -e 48 -c 2 -a 0 -i 0 -k RTR
r -t 1.572733499 -s 7 -d -1 -p AODV -e 48 -c 2 -a 0 -i 0 -k RTR
+ -t 1.572733499 -s 7 -d 5 -p AODV -e 44 -c 2 -a 0 -i 0 -k RTR 
- -t 1.572733499 -s 7 -d 5 -p AODV -e 44 -c 2 -a 0 -i 0 -k RTR
h -t 1.572733499 -s 7 -d 5 -p AODV -e 44 -c 2 -a 0 -i 0 -k RTR
r -t 1.572733523 -s 10 -d -1 -p AODV -e 48 -c 2 -a 0 -i 0 -k RTR
r -t 1.572733614 -s 13 -d -1 -p AODV -e 48 -c 2 -a 0 -i 0 -k RTR
r -t 1.572733686 -s 17 -d -1 -p AODV -e 48 -c 2 -a 0 -i 0 -k RTR
+ -t 1.573149115 -s 6 -d -1 -p AODV -e 48 -c 2 -a 0 -i 0 -k RTR 
- -t 1.573149115 -s 6 -d -1 -p AODV -e 48 -c 2 -a 0 -i 0 -k RTR
h -t 1.573149115 -s 6 -d -1 -p AODV -e 48 -c 2 -a 0 -i 0 -k RTR
+ -t 1.573272774 -s 13 -d -1 -p AODV -e 48 -c 2 -a 0 -i 0 -k RTR 
- -t 1.573272774 -s 13 -d -1 -p AODV -e 48 -c 2 -a 0 -i 0 -k RTR
h -t 1.573272774 -s 13 -d -1 -p AODV -e 48 -c 2 -a 0 -i 0 -k RTR
+ -t 1.573507466 -s 1 -d -1 -p AODV -e 48 -c 2 -a 0 -i 0 -k RTR 
- -t 1.573507466 -s 1 -d -1 -p AODV -e 48 -c 2 -a 0 -i 0 -k RTR
h -t 1.573507466 -s 1 -d -1 -p AODV -e 48 -c 2 -a 0 -i 0 -k RTR
+ -t 1.573927681 -s 10 -d -1 -p AODV -e 48 -c 2 -a 0 -i 0 -k RTR 
- -t 1.573927681 -s 10 -d -1 -p AODV -e 48 -c 2 -a 0 -i 0 -k RTR
h -t 1.573927681 -s 10 -d -1 -p AODV -e 48 -c 2 -a 0 -i 0 -k RTR
+ -t 1.574397745 -s 3 -d -1 -p AODV -e 48 -c 2 -a 0 -i 0 -k RTR 
- -t 1.574397745 -s 3 -d -1 -p AODV -e 48 -c 2 -a 0 -i 0 -k RTR
h -t 1.574397745 -s 3 -d -1 -p AODV -e 48 -c 2 -a 0 -i 0 -k RTR
+ -t 1.574662400 -s 12 -d -1 -p AODV -e 48 -c 2 -a 0 -i 0 -k RTR 
- -t 1.574662400 -s 12 -d -1 -p AODV -e 48 -c 2 -a 0 -i 0 -k RTR
h -t 1.574662400 -s 12 -d -1 -p AODV -e 48 -c 2 -a 0 -i 0 -k RTR
+ -t 1.577355569 -s 5 -d 17 -p AODV -e 44 -c 2 -a 0 -i 0 -k RTR 
- -t 1.577355569 -s 5 -d 17 -p AODV -e 44 -c 2 -a 0 -i 0 -k RTR