v 0.01 eval {set sim_annotation {Network Deployment}}
M 0.10000 0 (642.90, 168.55, 0.00), (715.68, 307.41), 40.00
M 0.10000 1 (967.37, 441.97, 0.00), (295.56, 344.12), 40.00
M 0.10000 2 (204.83, 407.34, 0.00), (431.58, 435.22), 40.00
M 0.10000 3 (743.22, 188.75, 0.00), (340.88, 125.56), 40.00
M 0.10000 4 (374.79, 59.91, 0.00), (897.35, 586.19), 40.00
M 0.10000 5 (699.78, 227.01, 0.00), (125.96, 772.86), 40.00
M 0.10000 6 (94.30, 748.79, 0.00), (886.17, 645.38), 40.00
M 0.10000 7 (224.56, 125.06, 0.00), (647.77, 15.08), 40.00
M 0.10000 8 (359.22, 333.10, 0.00), (866.13, 90.54), 40.00
M 0.10000 9 (115.68, 119.96, 0.00), (123.66, 243.75), 40.00
M 0.10000 10 (128.66, 361.54, 0.00), (813.43, 309.82), 40.00
M 0.10000 11 (542.48, 372.99, 0.00), (906.23, 2.56), 40.00
M 0.10000 12 (48.64, 380.58, 0.00), (790.14, 744.82), 40.00
M 0.10000 13 (411.34, 283.09, 0.00), (776.31, 369.40), 40.00
M 0.10000 14 (284.55, 308.94, 0.00), (658.40, 554.56), 40.00
M 0.10000 15 (349.26, 791.90, 0.00), (683.43, 344.45), 40.00
M 0.10000 16 (855.98, 320.22, 0.00), (401.64, 310.52), 40.00
M 0.10000 17 (436.73, 45.88, 0.00), (617.96, 1.59), 40.00
M 0.10000 18 (968.65, 82.99, 0.00), (473.01, 750.09), 40.00
M 0.10000 19 (523.59, 795.82, 0.00), (449.58, 46.14), 40.00
M 0.10000 20 (145.24, 46.73, 0.00), (434.35, 119.07), 40.00
M 0.10000 21 (812.20, 526.76, 0.00), (612.45, 389.92), 40.00
M 0.10000 22 (499.01, 651.28, 0.00), (800.83, 468.30), 40.00
M 0.10000 23 (554.53, 15.38, 0.00), (360.83, 328.61), 40.00
M 0.10000 24 (102.91, 524.63, 0.00), (729.95, 233.47), 40.00
s 1.000000000 _4_ AGT  --- 0 cbr 1000 [0 0 0 0] [energy 100.000000 ei 0.000 es 0.000 et 0.000 er 0.000] ------- [4:0 20:0 32 0] [0] 0 0
r 1.000000000 _4_ RTR  --- 0 cbr 1000 [0 0 0 0] [energy 100.000000 ei 0.000 es 0.000 et 0.000 er 0.000] ------- [4:0 20:0 32 0] [0] 0 0
s 1.000000000 _4_ RTR  --- 0 AODV 48 [0 0 0 0] [energy 100.000000 ei 0.000 es 0.000 et 0.000 er 0.000] ------- [4:255 -1:255 30 0] [0x2 1 1 [20 0] [4 4]] (REQUEST)
N -t 1.000535 -n 17 -e 99.999746
N -t 1.000535 -n 23 -e 99.999746
N -t 1.000535 -n 7 -e 99.999746
N -t 1.000536 -n 13 -e 99.999746
N -t 1.000536 -n 20 -e 99.999746
N -t 1.000536 -n 8 -e 99.999746
N -t 1.000536 -n 14 -e 99.999746
N -t 1.000536 -n 0 -e 99.999746
N -t 1.000536 -n 9 -e 99.999746
N -t 1.000536 -n 11 -e 99.999746
N -t 1.000536 -n 5 -e 99.999746
N -t 1.000536 -n 3 -e 99.999746
N -t 1.000536 -n 10 -e 99.999746
N -t 1.000536 -n 2 -e 99.999746
N -t 1.000536 -n 12 -e 99.999746
N -t 1.000537 -n 16 -e 99.999746
N -t 1.000537 -n 24 -e 99.999746
r 1.001408287 _17_ RTR  --- 0 AODV 48 [0 ffffffff 4 800] [energy 99.999746 ei 0.000 es 0.000 et 0.000 er 0.000] ------- [4:255 -1:255 30 0] [0x2 1 1 [20 0] [4 4]] (REQUEST)
r 1.001408470 _23_ RTR  --- 0 AODV 48 [0 ffffffff 4 800] [energy 99.999746 ei 0.000 es 0.000 et 0.000 er 0.000] ------- [4:255 -1:255 30 0] [0x2 1 1 [20 0] [4 4]] (REQUEST)
r 1.001408480 _7_ RTR  --- 0 AODV 48 [0 ffffffff 4 800] [energy 99.999746 ei 0.000 es 0.000 et 0.000 er 0.000] ------- [4:255 -1:255 30 0] [0x2 1 1 [20 0] [4 4]] (REQUEST)
r 1.001408703 _13_ RTR  --- 0 AODV 48 [0 ffffffff 4 800] [energy 99.999746 ei 0.000 es 0.000 et 0.000 er 0.000] ------- [4:255 -1:255 30 0] [0x2 1 1 [20 0] [4 4]] (REQUEST)
r 1.001408740 _20_ RTR  --- 0 AODV 48 [0 ffffffff 4 800] [energy 99.999746 ei 0.000 es 0.000 et 0.000 er 0.000] ------- [4:255 -1:255 30 0] [0x2 1 1 [20 0] [4 4]] (REQUEST)
s 1.001408740 _20_ RTR  --- 0 AODV 44 [0 0 0 0] [energy 99.999746 ei 0.000 es 0.000 et 0.000 er 0.000] ------- [20:255 4:255 30 4] [0x4 1 [20 4] 10.000000] (REPLY)
r 1.001408774 _8_ RTR  --- 0 AODV 48 [0 ffffffff 4 800] [energy 99.999746 ei 0.000 es 0.000 et 0.000 er 0.000] ------- [4:255 -1:255 30 0] [0x2 1 1 [20 0] [4 4]] (REQUEST)
s 1.001550334 _17_ RTR  --- 0 AODV 48 [0 ffffffff 4 800] [energy 99.999746 ei 0.000 es 0.000 et 0.000 er 0.000] ------- [17:255 -1:255 29 0] [0x2 2 1 [20 0] [4 4]] (REQUEST)
N -t 1.001664 -n 7 -e 99.999539
N -t 1.001664 -n 9 -e 99.999539
N -t 1.001664 -n 4 -e 99.999285
N -t 1.001665 -n 17 -e 99.999539
N -t 1.001665 -n 10 -e 99.999539
N -t 1.001665 -n 14 -e 99.999539
N -t 1.001665 -n 8 -e 99.999539
N -t 1.001665 -n 12 -e 99.999539
N -t 1.001665 -n 23 -e 99.999539
N -t 1.001665 -n 13 -e 99.999539
N -t 1.001665 -n 2 -e 99.999539
N -t 1.001665 -n 24 -e 99.999539
N -t 1.001665 -n 11 -e 99.999539
N -t 1.001665 -n 0 -e 99.999539
N -t 1.001666 -n 5 -e 99.999539
N -t 1.001666 -n 3 -e 99.999539
s 1.002289697 _23_ RTR  --- 0 AODV 48 [0 ffffffff 4 800] [energy 99.999539 ei 0.000 es 0.000 et 0.000 er 0.000] ------- [23:255 -1:255 29 0] [0x2 2 1 [20 0] [4 4]] (REQUEST)
N -t 1.002648 -n 17 -e 99.999434
N -t 1.002648 -n 23 -e 99.999434
N -t 1.002648 -n 7 -e 99.999434
N -t 1.002648 -n 13 -e 99.999434
N -t 1.002648 -n 20 -e 99.999227
N -t 1.002648 -n 8 -e 99.999434
N -t 1.002648 -n 14 -e 99.999434
N -t 1.002648 -n 0 -e 99.999434
N -t 1.002648 -n 9 -e 99.999434
N -t 1.002649 -n 11 -e 99.999434
N -t 1.002649 -n 5 -e 99.999434
N -t 1.002649 -n 3 -e 99.999434
N -t 1.002649 -n 10 -e 99.999434
N -t 1.002649 -n 2 -e 99.999434
N -t 1.002649 -n 12 -e 99.999434
N -t 1.002649 -n 16 -e 99.999640
N -t 1.002649 -n 24 -e 99.999434
N -t 1.003011 -n 7 -e 99.999342
N -t 1.003011 -n 9 -e 99.999342
N -t 1.003011 -n 4 -e 99.998982
N -t 1.003011 -n 17 -e 99.999342
N -t 1.003011 -n 10 -e 99.999342
N -t 1.003011 -n 14 -e 99.999342
N -t 1.003011 -n 8 -e 99.999342
N -t 1.003011 -n 12 -e 99.999342
N -t 1.003011 -n 23 -e 99.999342
N -t 1.003011 -n 13 -e 99.999342
N -t 1.003011 -n 2 -e 99.999342
N -t 1.003012 -n 24 -e 99.999342
N -t 1.003012 -n 11 -e 99.999342
N -t 1.003012 -n 0 -e 99.999342
N -t 1.003012 -n 5 -e 99.999342
N -t 1.003012 -n 3 -e 99.999342
N -t 1.003325 -n 17 -e 99.999136
N -t 1.003325 -n 23 -e 99.999136
N -t 1.003325 -n 7 -e 99.999136
N -t 1.003326 -n 13 -e 99.999136
N -t 1.003326 -n 20 -e 99.998838
N -t 1.003326 -n 8 -e 99.999136
N -t 1.003326 -n 14 -e 99.999136
N -t 1.003326 -n 0 -e 99.999136
N -t 1.003326 -n 9 -e 99.999136
N -t 1.003326 -n 11 -e 99.999136
N -t 1.003326 -n 5 -e 99.999136
N -t 1.003326 -n 3 -e 99.999136
N -t 1.003326 -n 10 -e 99.999136
N -t 1.003326 -n 2 -e 99.999136
N -t 1.003326 -n 12 -e 99.999136
N -t 1.003327 -n 16 -e 99.999434
N -t 1.003327 -n 24 -e 99.999136
N -t 1.004024 -n 7 -e 99.999045
N -t 1.004024 -n 9 -e 99.999045
N -t 1.004024 -n 4 -e 99.998478
N -t 1.004025 -n 17 -e 99.999045
N -t 1.004025 -n 10 -e 99.999045
N -t 1.004025 -n 14 -e 99.999045
N -t 1.004025 -n 8 -e 99.999045
N -t 1.004025 -n 12 -e 99.999045
N -t 1.004025 -n 23 -e 99.999045
N -t 1.004025 -n 13 -e 99.999045
N -t 1.004025 -n 2 -e 99.999045
N -t 1.004025 -n 24 -e 99.999045
N -t 1.004025 -n 11 -e 99.999045
N -t 1.004025 -n 0 -e 99.999045
N -t 1.004025 -n 5 -e 99.999045
N -t 1.004026 -n 3 -e 99.999045
N -t 1.004398 -n 7 -e 99.998939
N -t 1.004398 -n 9 -e 99.998939
N -t 1.004398 -n 4 -e 99.998373
N -t 1.004399 -n 17 -e 99.998939
N -t 1.004399 -n 10 -e 99.998939
N -t 1.004399 -n 14 -e 99.998939
N -t 1.004399 -n 8 -e 99.998939
N -t 1.004399 -n 12 -e 99.998939
N -t 1.004399 -n 23 -e 99.998939
N -t 1.004399 -n 13 -e 99.998939
N -t 1.004399 -n 2 -e 99.998939
N -t 1.004399 -n 24 -e 99.998939
N -t 1.004399 -n 11 -e 99.998939
N -t 1.004399 -n 0 -e 99.998939
N -t 1.004399 -n 5 -e 99.998939
N -t 1.004400 -n 3 -e 99.998939
s 1.004538392 _8_ RTR  --- 0 AODV 48 [0 ffffffff 4 800] [energy 99.998939 ei 0.000 es 0.000 et 0.000 er 0.001] ------- [8:255 -1:255 29 0] [0x2 2 1 [20 0] [4 4]] (REQUEST)
N -t 1.004761 -n 17 -e 99.998848
N -t 1.004761 -n 23 -e 99.998848
N -t 1.004761 -n 7 -e 99.998848
N -t 1.004761 -n 13 -e 99.998848
N -t 1.004761 -n 20 -e 99.998354
N -t 1.004761 -n 8 -e 99.998848
N -t 1.004761 -n 14 -e 99.998848
N -t 1.004761 -n 0 -e 99.998848
N -t 1.004761 -n 9 -e 99.998848
N -t 1.004761 -n 11 -e 99.998848
N -t 1.004762 -n 5 -e 99.998848
N -t 1.004762 -n 3 -e 99.998848
N -t 1.004762 -n 10 -e 99.998848
N -t 1.004762 -n 2 -e 99.998848
N -t 1.004762 -n 12 -e 99.998848
N -t 1.004762 -n 16 -e 99.999342
N -t 1.004762 -n 24 -e 99.998848
N -t 1.005076 -n 7 -e 99.998603
N -t 1.005076 -n 9 -e 99.998603
N -t 1.005076 -n 4 -e 99.997946
N -t 1.005076 -n 17 -e 99.998603
N -t 1.005076 -n 10 -e 99.998603
N -t 1.005076 -n 14 -e 99.998603
N -t 1.005076 -n 8 -e 99.998603
N -t 1.005076 -n 12 -e 99.998603
N -t 1.005076 -n 23 -e 99.998603
N -t 1.005076 -n 13 -e 99.998603
N -t 1.005076 -n 2 -e 99.998603
N -t 1.005077 -n 24 -e 99.998603
N -t 1.005077 -n 11 -e 99.998603
N -t 1.005077 -n 0 -e 99.998603
N -t 1.005077 -n 5 -e 99.998603
N -t 1.005077 -n 3 -e 99.998603
s 1.005820214 _7_ RTR  --- 0 AODV 48 [0 ffffffff 4 800] [energy 99.998603 ei 0.000 es 0.000 et 0.000 er 0.001] ------- [7:255 -1:255 29 0] [0x2 2 1 [20 0] [4 4]] (REQUEST)
N -t 1.005902 -n 17 -e 99.998512
N -t 1.005902 -n 23 -e 99.998512
N -t 1.005902 -n 7 -e 99.998512
N -t 1.005903 -n 13 -e 99.998512
N -t 1.005903 -n 20 -e 99.997773
N -t 1.005903 -n 8 -e 99.998512
N -t 1.005903 -n 14 -e 99.998512
N -t 1.005903 -n 0 -e 99.998512
N -t 1.005903 -n 9 -e 99.998512
N -t 1.005903 -n 11 -e 99.998512
N -t 1.005903 -n 5 -e 99.998512
N -t 1.005903 -n 3 -e 99.998512
N -t 1.005903 -n 10 -e 99.998512
N -t 1.005903 -n 2 -e 99.998512
N -t 1.005903 -n 12 -e 99.998512
N -t 1.005904 -n 16 -e 99.999251
N -t 1.005904 -n 24 -e 99.998512
r 1.005916920 _4_ RTR  --- 0 AODV 44 [13a 4 14 800] [energy 99.997763 ei 0.000 es 0.000 et 0.001 er 0.001] ------- [20:255 4:255 30 4] [0x4 1 [20 4] 10.000000] (REPLY)
s 1.005916920 _4_ RTR  --- 0 cbr 1020 [0 0 0 0] [energy 99.997763 ei 0.000 es 0.000 et 0.001 er 0.001] ------- [4:0 20:0 30 20] [0] 0 0
N -t 1.006296 -n 17 -e 99.998406
N -t 1.006296 -n 23 -e 99.998406
N -t 1.006296 -n 7 -e 99.998406
N -t 1.006297 -n 13 -e 99.998406
N -t 1.006297 -n 20 -e 99.997667
N -t 1.006297 -n 8 -e 99.998406
N -t 1.006297 -n 14 -e 99.998406
N -t 1.006297 -n 0 -e 99.998406
N -t 1.006297 -n 9 -e 99.998406
N -t 1.006297 -n 11 -e 99.998406
N -t 1.006297 -n 5 -e 99.998406
N -t 1.006297 -n 3 -e 99.998406
N -t 1.006297 -n 10 -e 99.998406
N -t 1.006297 -n 2 -e 99.998406
N -t 1.006297 -n 12 -e 99.998406
N -t 1.006298 -n 16 -e 99.999146
N -t 1.006298 -n 24 -e 99.998406
N -t 1.006659 -n 7 -e 99.998315
N -t 1.006659 -n 9 -e 99.998315
N -t 1.006659 -n 4 -e 99.997461
N -t 1.006660 -n 17 -e 99.998315
N -t 1.006660 -n 10 -e 99.998315
N -t 1.006660 -n 14 -e 99.998315
N -t 1.006660 -n 8 -e 99.998315
N -t 1.006660 -n 23 -e 99.998315
N -t 1.006660 -n 12 -e 99.998315
N -t 1.006660 -n 13 -e 99.998315
N -t 1.006660 -n 2 -e 99.998315
N -t 1.006660 -n 24 -e 99.998315
N -t 1.006660 -n 11 -e 99.998315
N -t 1.006660 -n 0 -e 99.998315
N -t 1.006660 -n 5 -e 99.998315
N -t 1.006660 -n 3 -e 99.998315
N -t 1.006974 -n 17 -e 99.995728
N -t 1.006974 -n 23 -e 99.995728
N -t 1.006974 -n 7 -e 99.995728
N -t 1.006974 -n 13 -e 99.995728
N -t 1.006974 -n 20 -e 99.994898
N -t 1.006974 -n 8 -e 99.995728
N -t 1.006974 -n 14 -e 99.995728
N -t 1.006974 -n 0 -e 99.995728
N -t 1.006974 -n 9 -e 99.995728
N -t 1.006974 -n 11 -e 99.995728
N -t 1.006974 -n 5 -e 99.995728
N -t 1.006974 -n 3 -e 99.995728
N -t 1.006975 -n 10 -e 99.995728
N -t 1.006975 -n 2 -e 99.995728
N -t 1.006975 -n 12 -e 99.995728
N -t 1.006975 -n 16 -e 99.996558
N -t 1.006975 -n 24 -e 99.995728
s 1.009400258 _13_ RTR  --- 0 AODV 48 [0 ffffffff 4 800] [energy 99.995728 ei 0.000 es 0.000 et 0.000 er 0.004] ------- [13:255 -1:255 29 0] [0x2 2 1 [20 0] [4 4]] (REQUEST)
N -t 1.015608 -n 7 -e 99.995637
N -t 1.015609 -n 9 -e 99.995637
N -t 1.015609 -n 4 -e 99.992195
N -t 1.015609 -n 17 -e 99.995637
N -t 1.015609 -n 10 -e 99.995637
N -t 1.015609 -n 14 -e 99.995637
N -t 1.015609 -n 8 -e 99.995637
N -t 1.015609 -n 23 -e 99.995637
N -t 1.015609 -n 12 -e 99.995637
N -t 1.015609 -n 13 -e 99.995637
N -t 1.015609 -n 2 -e 99.995637
N -t 1.015610 -n 24 -e 99.995637
N -t 1.015610 -n 11 -e 99.995637
N -t 1.015610 -n 0 -e 99.995637
N -t 1.015610 -n 5 -e 99.995637
N -t 1.015610 -n 3 -e 99.995637
r 1.015623140 _20_ AGT  --- 0 cbr 1020 [13a 14 4 800] [energy 99.994715 ei 0.000 es 0.000 et 0.002 er 0.003] ------- [4:0 20:0 30 20] [0] 1 0
N -t 1.016103 -n 20 -e 99.994461
N -t 1.016103 -n 4 -e 99.991941
N -t 1.016103 -n 9 -e 99.995382
N -t 1.016103 -n 14 -e 99.995382
N -t 1.016103 -n 17 -e 99.995382
N -t 1.016103 -n 8 -e 99.995382
N -t 1.016103 -n 13 -e 99.995382
N -t 1.016103 -n 10 -e 99.995382
N -t 1.016103 -n 23 -e 99.995382
N -t 1.016103 -n 2 -e 99.995382
N -t 1.016104 -n 12 -e 99.995382
N -t 1.016104 -n 11 -e 99.995382
N -t 1.016104 -n 0 -e 99.995382
N -t 1.016104 -n 24 -e 99.995382
N -t 1.016104 -n 5 -e 99.995382
N -t 1.016104 -n 3 -e 99.995382
r 1.016975803 _20_ RTR  --- 0 AODV 48 [0 ffffffff 7 800] [energy 99.994461 ei 0.000 es 0.000 et 0.002 er 0.004] ------- [7:255 -1:255 29 0] [0x2 2 1 [20 0] [4 4]] (REQUEST)
r 1.016975951 _4_ RTR  --- 0 AODV 48 [0 ffffffff 7 800] [energy 99.991941 ei 0.000 es 0.000 et 0.007 er 0.001] ------- [7:255 -1:255 29 0] [0x2 2 1 [20 0] [4 4]] (REQUEST)
r 1.016975964 _9_ RTR  --- 0 AODV 48 [0 ffffffff 7 800] [energy 99.995382 ei 0.000 es 0.000 et 0.000 er 0.005] ------- [7:255 -1:255 29 0] [0x2 2 1 [20 0] [4 4]] (REQUEST)
r 1.016976206 _14_ RTR  --- 0 AODV 48 [0 ffffffff 7 800] [energy 99.995382 ei 0.000 es 0.000 et 0.000 er 0.005] ------- [7:255 -1:255 29 0] [0x2 2 1 [20 0] [4 4]] (REQUEST)
r 1.016976226 _17_ RTR  --- 0 AODV 48 [0 ffffffff 7 800] [energy 99.995382 ei 0.000 es 0.000 et 0.000 er 0.005] ------- [7:255 -1:255 29 0] [0x2 2 1 [20 0] [4 4]] (REQUEST)
r 1.016976275 _8_ RTR  --- 0 AODV 48 [0 ffffffff 7 800] [energy 99.995382 ei 0.000 es 0.000 et 0.000 er 0.005] ------- [7:255 -1:255 29 0] [0x2 2 1 [20 0] [4 4]] (REQUEST)
N -t 1.017221 -n 23 -e 99.995128
N -t 1.017222 -n 4 -e 99.991686
N -t 1.017222 -n 7 -e 99.994874
N -t 1.017222 -n 0 -e 99.995128
N -t 1.017222 -n 13 -e 99.995128
N -t 1.017222 -n 3 -e 99.995128
N -t 1.017222 -n 8 -e 99.995128
N -t 1.017222 -n 20 -e 99.994206
N -t 1.017222 -n 5 -e 99.995128
N -t 1.017222 -n 11 -e 99.995128
N -t 1.017222 -n 14 -e 99.995128
N -t 1.017222 -n 9 -e 99.995128
N -t 1.017223 -n 2 -e 99.995128
N -t 1.017223 -n 10 -e 99.995128
N -t 1.017223 -n 16 -e 99.996304
N -t 1.017223 -n 18 -e 99.999746
N -t 1.017223 -n 12 -e 99.995128
s 1.017917352 _9_ RTR  --- 0 AODV 48 [0 ffffffff 7 800] [energy 99.995128 ei 0.000 es 0.000 et 0.000 er 0.005] ------- [9:255 -1:255 28 0] [0x2 3 1 [20 0] [4 4]] (REQUEST)
r 1.018094438 _23_ RTR  --- 0 AODV 48 [0 ffffffff 11 800] [energy 99.995128 ei 0.000 es 0.000 et 0.000 er 0.005] ------- [17:255 -1:255 29 0] [0x2 2 1 [20 0] [4 4]] (REQUEST)
r 1.018094515 _4_ RTR  --- 0 AODV 48 [0 ffffffff 11 800] [energy 99.991686 ei 0.000 es 0.000 et 0.007 er 0.001] ------- [17:255 -1:255 29 0] [0x2 2 1 [20 0] [4 4]] (REQUEST)
r 1.018094981 _7_ RTR  --- 0 AODV 48 [0 ffffffff 11 800] [energy 99.994874 ei 0.000 es 0.000 et 0.001 er 0.005] ------- [17:255 -1:255 29 0] [0x2 2 1 [20 0] [4 4]] (REQUEST)
r 1.018095056 _0_ RTR  --- 0 AODV 48 [0 ffffffff 11 800] [energy 99.995128 ei 0.000 es 0.000 et 0.000 er 0.005] ------- [17:255 -1:255 29 0] [0x2 2 1 [20 0] [4 4]] (REQUEST)
N -t 1.018480 -n 17 -e 99.994619
N -t 1.018480 -n 4 -e 99.991432
N -t 1.018480 -n 0 -e 99.994874
N -t 1.018480 -n 3 -e 99.994874
N -t 1.018480 -n 5 -e 99.994874
N -t 1.018480 -n 13 -e 99.994874
N -t 1.018480 -n 7 -e 99.994619
N -t 1.018480 -n 11 -e 99.994874
N -t 1.018480 -n 8 -e 99.994874
N -t 1.018481 -n 20 -e 99.993952
N -t 1.018481 -n 14 -e 99.994874
N -t 1.018481 -n 16 -e 99.996050
N -t 1.018481 -n 18 -e 99.999491
N -t 1.018481 -n 9 -e 99.994874
N -t 1.018481 -n 2 -e 99.994874
N -t 1.018481 -n 10 -e 99.994874
N -t 1.018481 -n 21 -e 99.999746
r 1.019352650 _17_ RTR  --- 0 AODV 48 [0 ffffffff 17 800] [energy 99.994619 ei 0.000 es 0.000 et 0.001 er 0.005] ------- [23:255 -1:255 29 0] [0x2 2 1 [20 0] [4 4]] (REQUEST)
r 1.019352905 _4_ RTR  --- 0 AODV 48 [0 ffffffff 17 800] [energy 99.991432 ei 0.000 es 0.000 et 0.007 er 0.002] ------- [23:255 -1:255 29 0] [0x2 2 1 [20 0] [4 4]] (REQUEST)
r 1.019353100 _0_ RTR  --- 0 AODV 48 [0 ffffffff 17 800] [energy 99.994874 ei 0.000 es 0.000 et 0.000 er 0.005] ------- [23:255 -1:255 29 0] [0x2 2 1 [20 0] [4 4]] (REQUEST)
r 1.019353169 _3_ RTR  --- 0 AODV 48 [0 ffffffff 17 800] [energy 99.994874 ei 0.000 es 0.000 et 0.000 er 0.005] ------- [23:255 -1:255 29 0] [0x2 2 1 [20 0] [4 4]] (REQUEST)
r 1.019353264 _5_ RTR  --- 0 AODV 48 [0 ffffffff 17 800] [energy 99.994874 ei 0.000 es 0.000 et 0.000 er 0.005] ------- [23:255 -1:255 29 0] [0x2 2 1 [20 0] [4 4]] (REQUEST)
N -t 1.019943 -n 20 -e 99.993698
N -t 1.019943 -n 7 -e 99.994365
N -t 1.019944 -n 10 -e 99.994619
N -t 1.019944 -n 12 -e 99.994874
N -t 1.019944 -n 14 -e 99.994619
N -t 1.019944 -n 2 -e 99.994619
N -t 1.019944 -n 4 -e 99.991178
N -t 1.019944 -n 8 -e 99.994619
N -t 1.019944 -n 24 -e 99.995128
N -t 1.019944 -n 13 -e 99.994619
N -t 1.019944 -n 17 -e 99.994365
N -t 1.019944 -n 23 -e 99.994365
N -t 1.019945 -n 11 -e 99.994619
N -t 1.019945 -n 0 -e 99.994619
r 1.020816273 _20_ RTR  --- 0 AODV 48 [0 ffffffff 9 800] [energy 99.993698 ei 0.000 es 0.000 et 0.002 er 0.004] ------- [9:255 -1:255 28 0] [0x2 3 1 [20 0] [4 4]] (REQUEST)
r 1.020816369 _7_ RTR  --- 0 AODV 48 [0 ffffffff 9 800] [energy 99.994365 ei 0.000 es 0.000 et 0.001 er 0.005] ------- [9:255 -1:255 28 0] [0x2 3 1 [20 0] [4 4]] (REQUEST)
r 1.020816568 _10_ RTR  --- 0 AODV 48 [0 ffffffff 9 800] [energy 99.994619 ei 0.000 es 0.000 et 0.000 er 0.005] ------- [9:255 -1:255 28 0] [0x2 3 1 [20 0] [4 4]] (REQUEST)
r 1.020816686 _12_ RTR  --- 0 AODV 48 [0 ffffffff 9 800] [energy 99.994874 ei 0.000 es 0.000 et 0.000 er 0.005] ------- [9:255 -1:255 28 0] [0x2 3 1 [20 0] [4 4]] (REQUEST)
N -t 1.021246 -n 8 -e 99.994365
N -t 1.021247 -n 11 -e 99.994365
N -t 1.021247 -n 14 -e 99.994365
N -t 1.021247 -n 4 -e 99.990923
N -t 1.021247 -n 5 -e 99.994619
N -t 1.021247 -n 0 -e 99.994365
N -t 1.021247 -n 2 -e 99.994365
N -t 1.021247 -n 17 -e 99.994110
N -t 1.021247 -n 7 -e 99.994110
N -t 1.021247 -n 23 -e 99.994110
N -t 1.021247 -n 3 -e 99.994619
N -t 1.021247 -n 10 -e 99.994365
N -t 1.021247 -n 22 -e 99.999746
N -t 1.021247 -n 20 -e 99.993443
N -t 1.021247 -n 9 -e 99.994110
N -t 1.021247 -n 16 -e 99.995795
N -t 1.021247 -n 24 -e 99.994874
N -t 1.021247 -n 12 -e 99.994619
N -t 1.021247 -n 21 -e 99.999491
N -t 1.021248 -n 19 -e 99.999746
N -t 1.021248 -n 15 -e 99.999746
N -t 1.021248 -n 1 -e 99.999746
N -t 1.021248 -n 18 -e 99.999237
r 1.022119263 _8_ RTR  --- 0 AODV 48 [0 ffffffff d 800] [energy 99.994365 ei 0.000 es 0.000 et 0.000 er 0.006] ------- [13:255 -1:255 29 0] [0x2 2 1 [20 0] [4 4]] (REQUEST)
r 1.022119505 _11_ RTR  --- 0 AODV 48 [0 ffffffff d 800] [energy 99.994365 ei 0.000 es 0.000 et 0.000 er 0.006] ------- [13:255 -1:255 29 0] [0x2 2 1 [20 0] [4 4]] (REQUEST)
r 1.022119519 _14_ RTR  --- 0 AODV 48 [0 ffffffff d 800] [energy 99.994365 ei 0.000 es 0.000 et 0.000 er 0.006] ------- [13:255 -1:255 29 0] [0x2 2 1 [20 0] [4 4]] (REQUEST)
r 1.022119764 _4_ RTR  --- 0 AODV 48 [0 ffffffff d 800] [energy 99.990923 ei 0.000 es 0.000 et 0.007 er 0.002] ------- [13:255 -1:255 29 0] [0x2 2 1 [20 0] [4 4]] (REQUEST)
r 1.022119826 _5_ RTR  --- 0 AODV 48 [0 ffffffff d 800] [energy 99.994619 ei 0.000 es 0.000 et 0.000 er 0.005] ------- [13:255 -1:255 29 0] [0x2 2 1 [20 0] [4 4]] (REQUEST)
r 1.022119832 _0_ RTR  --- 0 AODV 48 [0 ffffffff d 800] [energy 99.994365 ei 0.000 es 0.000 et 0.000 er 0.006] ------- [13:255 -1:255 29 0] [0x2 2 1 [20 0] [4 4]] (REQUEST)
r 1.022119856 _2_ RTR  --- 0 AODV 48 [0 ffffffff d 800] [energy 99.994365 ei 0.000 es 0.000 et 0.000 er 0.006] ------- [13:255 -1:255 29 0] [0x2 2 1 [20 0] [4 4]] (REQUEST)
s 1.022181913 _0_ RTR  --- 0 AODV 48 [0 ffffffff 11 800] [energy 99.994365 ei 0.000 es 0.000 et 0.000 er 0.006] ------- [0:255 -1:255 28 0] [0x2 3 1 [20 0] [4 4]] (REQUEST)
N -t 1.022224 -n 13 -e 99.993856
N -t 1.022225 -n 14 -e 99.994110
N -t 1.022225 -n 2 -e 99.994110
N -t 1.022225 -n 11 -e 99.994110
N -t 1.022225 -n 10 -e 99.994110
N -t 1.022225 -n 4 -e 99.990669
N -t 1.022225 -n 7 -e 99.993856
N -t 1.022225 -n 5 -e 99.994365
N -t 1.022225 -n 17 -e 99.993856
N -t 1.022225 -n 0 -e 99.994110
N -t 1.022225 -n 23 -e 99.993856
N -t 1.022225 -n 9 -e 99.993856
N -t 1.022225 -n 24 -e 99.994619
N -t 1.022225 -n 12 -e 99.994365
N -t 1.022225 -n 20 -e 99.993189
N -t 1.022225 -n 3 -e 99.994365
N -t 1.022225 -n 22 -e 99.999491
N -t 1.022226 -n 16 -e 99.995541
N -t 1.022226 -n 21 -e 99.999237
N -t 1.022226 -n 15 -e 99.999491
N -t 1.022226 -n 19 -e 99.999491
N -t 1.022226 -n 6 -e 99.999746
s 1.022988280 _12_ RTR  --- 0 AODV 48 [0 ffffffff 9 800] [energy 99.994365 ei 0.000 es 0.000 et 0.000 er 0.006] ------- [12:255 -1:255 27 0] [0x2 4 1 [20 0] [4 4]] (REQUEST)
r 1.023097465 _13_ RTR  --- 0 AODV 48 [0 ffffffff 8 800] [energy 99.993856 ei 0.000 es 0.000 et 0.001 er 0.006] ------- [8:255 -1:255 29 0] [0x2 2 1 [20 0] [4 4]] (REQUEST)
r 1.023097523 _14_ RTR  --- 0 AODV 48 [0 ffffffff 8 800] [energy 99.994110 ei 0.000 es 0.000 et 0.000 er 0.006] ------- [8:255 -1:255 29 0] [0x2 2 1 [20 0] [4 4]] (REQUEST)
r 1.023097857 _2_ RTR  --- 0 AODV 48 [0 ffffffff 8 800] [energy 99.994110 ei 0.000 es 0.000 et 0.000 er 0.006] ------- [8:255 -1:255 29 0] [0x2 2 1 [20 0] [4 4]] (REQUEST)
r 1.023097857 _11_ RTR  --- 0 AODV 48 [0 ffffffff 8 800] [energy 99.994110 ei 0.000 es 0.000 et 0.000 er 0.006] ------- [8:255 -1:255 29 0] [0x2 2 1 [20 0] [4 4]] (REQUEST)
r 1.023098033 _10_ RTR  --- 0 AODV 48 [0 ffffffff 8 800] [energy 99.994110 ei 0.000 es 0.000 et 0.000 er 0.006] ------- [8:255 -1:255 29 0] [0x2 2 1 [20 0] [4 4]] (REQUEST)
r 1.023098034 _4_ RTR  --- 0 AODV 48 [0 ffffffff 8 800] [energy 99.990669 ei 0.000 es 0.000 et 0.007 er 0.002] ------- [8:255 -1:255 29 0] [0x2 2 1 [20 0] [4 4]] (REQUEST)
r 1.023098066 _7_ RTR  --- 0 AODV 48 [0 ffffffff 8 800] [energy 99.993856 ei 0.000 es 0.000 et 0.001 er 0.006] ------- [8:255 -1:255 29 0] [0x2 2 1 [20 0] [4 4]] (REQUEST)
N -t 1.023628 -n 10 -e 99.993856
N -t 1.023628 -n 24 -e 99.994365
N -t 1.023628 -n 2 -e 99.993856
N -t 1.023628 -n 9 -e 99.993602
N -t 1.023628 -n 14 -e 99.993856
N -t 1.023628 -n 8 -e 99.993602
N -t 1.023628 -n 7 -e 99.993602
N -t 1.023629 -n 6 -e 99.999491
N -t 1.023629 -n 20 -e 99.992934
N -t 1.023629 -n 13 -e 99.993602
N -t 1.023629 -n 4 -e 99.990414
N -t 1.023629 -n 15 -e 99.999237
N -t 1.023629 -n 11 -e 99.993856
N -t 1.023629 -n 22 -e 99.999237
N -t 1.023629 -n 17 -e 99.993602
N -t 1.023847 -n 3 -e 99.994110
N -t 1.023847 -n 5 -e 99.994110
N -t 1.023848 -n 11 -e 99.993790
N -t 1.023848 -n 16 -e 99.995286
N -t 1.023848 -n 23 -e 99.993602
N -t 1.023848 -n 13 -e 99.993536
N -t 1.023848 -n 17 -e 99.993536
N -t 1.023848 -n 4 -e 99.990349
N -t 1.023848 -n 8 -e 99.993536
N -t 1.023848 -n 18 -e 99.998982
N -t 1.023848 -n 21 -e 99.998982
N -t 1.023848 -n 1 -e 99.999491
N -t 1.023848 -n 14 -e 99.993790
N -t 1.023849 -n 7 -e 99.993536
N -t 1.023849 -n 22 -e 99.999171
N -t 1.023849 -n 2 -e 99.993790
N -t 1.023849 -n 20 -e 99.992868
N -t 1.023849 -n 10 -e 99.993790
N -t 1.023849 -n 9 -e 99.993535
s 1.024014328 _3_ RTR  --- 0 AODV 48 [0 ffffffff 17 800] [energy 99.994110 ei 0.000 es 0.000 et 0.000 er 0.006] ------- [3:255 -1:255 28 0] [0x2 3 1 [20 0] [4 4]] (REQUEST)
r 1.024500639 _10_ RTR  --- 0 AODV 48 [0 ffffffff c 800] [energy 99.993790 ei 0.000 es 0.000 et 0.000 er 0.006] ------- [12:255 -1:255 27 0] [0x2 4 1 [20 0] [4 4]] (REQUEST)
r 1.024500748 _24_ RTR  --- 0 AODV 48 [0 ffffffff c 800] [energy 99.994365 ei 0.000 es 0.000 et 0.000 er 0.006] ------- [12:255 -1:255 27 0] [0x2 4 1 [20 0] [4 4]] (REQUEST)
r 1.024500867 _2_ RTR  --- 0 AODV 48 [0 ffffffff c 800] [energy 99.993790 ei 0.000 es 0.000 et 0.000 er 0.006] ------- [12:255 -1:255 27 0] [0x2 4 1 [20 0] [4 4]] (REQUEST)
r 1.024501142 _9_ RTR  --- 0 AODV 48 [0 ffffffff c 800] [energy 99.993535 ei 0.000 es 0.000 et 0.001 er 0.006] ------- [12:255 -1:255 27 0] [0x2 4 1 [20 0] [4 4]] (REQUEST)
r 1.024720402 _3_ RTR  --- 0 AODV 48 [0 ffffffff 0 800] [energy 99.994110 ei 0.000 es 0.000 et 0.000 er 0.006] ------- [0:255 -1:255 28 0] [0x2 3 1 [20 0] [4 4]] (REQUEST)
r 1.024720411 _5_ RTR  --- 0 AODV 48 [0 ffffffff 0 800] [energy 99.994110 ei 0.000 es 0.000 et 0.000 er 0.006] ------- [0:255 -1:255 28 0] [0x2 3 1 [20 0] [4 4]] (REQUEST)
r 1.024720895 _16_ RTR  --- 0 AODV 48 [0 ffffffff 0 800] [energy 99.995286 ei 0.000 es 0.000 et 0.000 er 0.005] ------- [0:255 -1:255 28 0] [0x2 3 1 [20 0] [4 4]] (REQUEST)
r 1.024720897 _23_ RTR  --- 0 AODV 48 [0 ffffffff 0 800] [energy 99.993602 ei 0.000 es 0.000 et 0.001 er 0.006] ------- [0:255 -1:255 28 0] [0x2 3 1 [20 0] [4 4]] (REQUEST)
N -t 1.025026 -n 0 -e 99.993347
N -t 1.025026 -n 5 -e 99.993856
N -t 1.025026 -n 16 -e 99.995032
N -t 1.025026 -n 11 -e 99.993536
N -t 1.025026 -n 23 -e 99.993347
N -t 1.025026 -n 18 -e 99.998728
N -t 1.025026 -n 17 -e 99.993282
N -t 1.025026 -n 13 -e 99.993281
N -t 1.025026 -n 4 -e 99.990094
N -t 1.025027 -n 21 -e 99.998728
N -t 1.025027 -n 1 -e 99.999237
N -t 1.025027 -n 8 -e 99.993281
N -t 1.025027 -n 14 -e 99.993536
N -t 1.025027 -n 7 -e 99.993281
N -t 1.025027 -n 22 -e 99.998916
N -t 1.025027 -n 2 -e 99.993535
N -t 1.025027 -n 20 -e 99.992614
s 1.025046491 _14_ RTR  --- 0 AODV 48 [0 ffffffff 7 800] [energy 99.993536 ei 0.000 es 0.000 et 0.000 er 0.006] ------- [14:255 -1:255 28 0] [0x2 3 1 [20 0] [4 4]] (REQUEST)
r 1.025898569 _0_ RTR  --- 0 AODV 48 [0 ffffffff 3 800] [energy 99.993347 ei 0.000 es 0.000 et 0.001 er 0.006] ------- [3:255 -1:255 28 0] [0x2 3 1 [20 0] [4 4]] (REQUEST)
r 1.025898660 _5_ RTR  --- 0 AODV 48 [0 ffffffff 3 800] [energy 99.993856 ei 0.000 es 0.000 et 0.000 er 0.006] ------- [3:255 -1:255 28 0] [0x2 3 1 [20 0] [4 4]] (REQUEST)
r 1.025898991 _16_ RTR  --- 0 AODV 48 [0 ffffffff 3 800] [energy 99.995032 ei 0.000 es 0.000 et 0.000 er 0.005] ------- [3:255 -1:255 28 0] [0x2 3 1 [20 0] [4 4]] (REQUEST)
r 1.025899116 _11_ RTR  --- 0 AODV 48 [0 ffffffff 3 800] [energy 99.993536 ei 0.000 es 0.000 et 0.000 er 0.006] ------- [3:255 -1:255 28 0] [0x2 3 1 [20 0] [4 4]] (REQUEST)
r 1.025899132 _23_ RTR  --- 0 AODV 48 [0 ffffffff 3 800] [energy 99.993347 ei 0.000 es 0.000 et 0.001 er 0.006] ------- [3:255 -1:255 28 0] [0x2 3 1 [20 0] [4 4]] (REQUEST)
s 1.026276332 _5_ RTR  --- 0 AODV 48 [0 ffffffff 17 800] [energy 99.993856 ei 0.000 es 0.000 et 0.000 er 0.006] ------- [5:255 -1:255 28 0] [0x2 3 1 [20 0] [4 4]] (REQUEST)
s 1.026374401 _24_ RTR  --- 0 AODV 48 [0 ffffffff c 800] [energy 99.994365 ei 0.000 es 0.000 et 0.000 er 0.006] ------- [24:255 -1:255 26 0] [0x2 5 1 [20 0] [4 4]] (REQUEST)
N -t 1.026412 -n 0 -e 99.993093
N -t 1.026412 -n 3 -e 99.993347
N -t 1.026412 -n 11 -e 99.993282
N -t 1.026412 -n 16 -e 99.994778
N -t 1.026412 -n 13 -e 99.993027
N -t 1.026412 -n 23 -e 99.993093
N -t 1.026412 -n 21 -e 99.998474
N -t 1.026412 -n 8 -e 99.993027
N -t 1.026412 -n 17 -e 99.993027
N -t 1.026412 -n 18 -e 99.998474
N -t 1.026412 -n 1 -e 99.998982
N -t 1.026412 -n 4 -e 99.989840
N -t 1.026413 -n 14 -e 99.993281
N -t 1.026413 -n 22 -e 99.998662
N -t 1.026413 -n 7 -e 99.993027
N -t 1.026413 -n 2 -e 99.993281
N -t 1.026413 -n 10 -e 99.993535
N -t 1.026413 -n 19 -e 99.999237
N -t 1.026413 -n 20 -e 99.992359
N -t 1.026570 -n 12 -e 99.993602
N -t 1.026570 -n 2 -e 99.993234
N -t 1.026570 -n 10 -e 99.993488
N -t 1.026570 -n 6 -e 99.999237
N -t 1.026570 -n 14 -e 99.993234
N -t 1.026570 -n 8 -e 99.992979
N -t 1.026571 -n 15 -e 99.998982
N -t 1.026571 -n 9 -e 99.993281
N -t 1.026571 -n 13 -e 99.992979
N -t 1.026571 -n 7 -e 99.992979
N -t 1.026571 -n 22 -e 99.998615
N -t 1.026571 -n 20 -e 99.992312
N -t 1.026571 -n 19 -e 99.999189
N -t 1.026571 -n 11 -e 99.993234
N -t 1.026571 -n 4 -e 99.989792
r 1.027284508 _0_ RTR  --- 0 AODV 48 [0 ffffffff 5 800] [energy 99.993093 ei 0.000 es 0.000 et 0.001 er 0.006] ------- [5:255 -1:255 28 0] [0x2 3 1 [20 0] [4 4]] (REQUEST)
r 1.027284590 _3_ RTR  --- 0 AODV 48 [0 ffffffff 5 800] [energy 99.993347 ei 0.000 es 0.000 et 0.001 er 0.006] ------- [5:255 -1:255 28 0] [0x2 3 1 [20 0] [4 4]] (REQUEST)
r 1.027284800 _11_ RTR  --- 0 AODV 48 [0 ffffffff 5 800] [energy 99.993234 ei 0.000 es 0.000 et 0.000 er 0.007] ------- [5:255 -1:255 28 0] [0x2 3 1 [20 0] [4 4]] (REQUEST)
r 1.027284867 _16_ RTR  --- 0 AODV 48 [0 ffffffff 5 800] [energy 99.994778 ei 0.000 es 0.000 et 0.000 er 0.005] ------- [5:255 -1:255 28 0] [0x2 3 1 [20 0] [4 4]] (REQUEST)
r 1.027285157 _23_ RTR  --- 0 AODV 48 [0 ffffffff 5 800] [energy 99.993093 ei 0.000 es 0.000 et 0.001 er 0.006] ------- [5:255 -1:255 28 0] [0x2 3 1 [20 0] [4 4]] (REQUEST)
r 1.027442817 _12_ RTR  --- 0 AODV 48 [0 ffffffff 18 800] [energy 99.993602 ei 0.000 es 0.000 et 0.001 er 0.006] ------- [24:255 -1:255 26 0] [0x2 5 1 [20 0] [4 4]] (REQUEST)
r 1.027443184 _6_ RTR  --- 0 AODV 48 [0 ffffffff 18 800] [energy 99.999237 ei 0.000 es 0.000 et 0.000 er 0.001] ------- [24:255 -1:255 26 0] [0x2 5 1 [20 0] [4 4]] (REQUEST)
N -t 1.027913 -n 8 -e 99.992725
N -t 1.027913 -n 2 -e 99.992979
N -t 1.027913 -n 13 -e 99.992725
N -t 1.027913 -n 10 -e 99.993234
N -t 1.027913 -n 7 -e 99.992725
N -t 1.027913 -n 12 -e 99.993347
N -t 1.027913 -n 11 -e 99.992979
N -t 1.027913 -n 24 -e 99.993602
N -t 1.027913 -n 4 -e 99.989538
N -t 1.027913 -n 9 -e 99.993027
N -t 1.027913 -n 20 -e 99.992058
N -t 1.027913 -n 17 -e 99.992773
N -t 1.027913 -n 23 -e 99.992838
N -t 1.027913 -n 5 -e 99.993093
N -t 1.027913 -n 0 -e 99.992838
N -t 1.027913 -n 22 -e 99.998360
N -t 1.027914 -n 3 -e 99.993093
N -t 1.027914 -n 15 -e 99.998728
N -t 1.027914 -n 6 -e 99.998982
N -t 1.027914 -n 19 -e 99.998935
N -t 1.027914 -n 21 -e 99.998219
N -t 1.027914 -n 16 -e 99.994523
s 1.028674219 _6_ RTR  --- 0 AODV 48 [0 ffffffff 18 800] [energy 99.998982 ei 0.000 es 0.000 et 0.000 er 0.001] ------- [6:255 -1:255 25 0] [0x2 6 1 [20 0] [4 4]] (REQUEST)
r 1.028785507 _8_ RTR  --- 0 AODV 48 [0 ffffffff e 800] [energy 99.992725 ei 0.000 es 0.000 et 0.001 er 0.007] ------- [14:255 -1:255 28 0] [0x2 3 1 [20 0] [4 4]] (REQUEST)
r 1.028785616 _2_ RTR  --- 0 AODV 48 [0 ffffffff e 800] [energy 99.992979 ei 0.000 es 0.000 et 0.000 er 0.007] ------- [14:255 -1:255 28 0] [0x2 3 1 [20 0] [4 4]] (REQUEST)