v 0.01 eval {set sim_annotation {Network Deployment}}
M 0.10000 0 (707.86, 40.37, 0.00), (468.90, 628.48), 40.00
M 0.10000 1 (222.68, 506.19, 0.00), (675.70, 371.51), 40.00
M 0.10000 2 (380.03, 130.30, 0.00), (899.56, 674.21), 40.00
M 0.10000 3 (467.45, 408.13, 0.00), (383.71, 25.40), 40.00
M 0.10000 4 (209.79, 720.53, 0.00), (622.60, 81.82), 40.00
M 0.10000 5 (394.21, 425.09, 0.00), (976.97, 700.83), 40.00
M 0.10000 6 (508.56, 277.09, 0.00), (612.71, 627.72), 40.00
M 0.10000 7 (308.19, 636.94, 0.00), (648.78, 53.16), 40.00
M 0.10000 8 (352.29, 738.95, 0.00), (764.71, 412.89), 40.00
M 0.10000 9 (361.23, 153.11, 0.00), (307.27, 176.32), 40.00
M 0.10000 10 (570.38, 309.19, 0.00), (187.07, 117.14), 40.00
M 0.10000 11 (660.33, 194.32, 0.00), (4.13, 333.44), 40.00
M 0.10000 12 (450.49, 273.80, 0.00), (223.40, 595.01), 40.00
M 0.10000 13 (210.01, 486.13, 0.00), (503.36, 762.23), 40.00
M 0.10000 14 (56.79, 420.68, 0.00), (493.85, 130.56), 40.00
M 0.10000 15 (895.45, 595.97, 0.00), (887.06, 638.15), 40.00
M 0.10000 16 (640.55, 608.73, 0.00), (783.30, 755.21), 40.00
M 0.10000 17 (698.62, 593.67, 0.00), (50.78, 310.96), 40.00
M 0.10000 18 (259.55, 201.12, 0.00), (964.39, 468.40), 40.00
M 0.10000 19 (251.51, 86.77, 0.00), (483.31, 746.21), 40.00
M 0.10000 20 (947.92, 533.69, 0.00), (870.91, 298.41), 40.00
M 0.10000 21 (125.26, 219.93, 0.00), (244.11, 549.18), 40.00
M 0.10000 22 (502.10, 584.91, 0.00), (683.42, 141.09), 40.00
M 0.10000 23 (283.65, 210.05, 0.00), (185.82, 66.31), 40.00
M 0.10000 24 (911.29, 52.57, 0.00), (120.32, 203.91), 40.00
s 1.000000000 _4_ AGT  --- 0 cbr 1000 [0 0 0 0] [energy 100.000000 ei 0.000 es 0.000 et 0.000 er 0.000] ------- [4:0 20:0 32 0] [0] 0 0
r 1.000000000 _4_ RTR  --- 0 cbr 1000 [0 0 0 0] [energy 100.000000 ei 0.000 es 0.000 et 0.000 er 0.000] ------- [4:0 20:0 32 0] [0] 0 0
s 1.000000000 _4_ RTR  --- 0 AODV 48 [0 0 0 0] [energy 100.000000 ei 0.000 es 0.000 et 0.000 er 0.000] ------- [4:255 -1:255 30 0] [0x2 1 1 [20 0] [4 4]] (REQUEST)
N -t 1.000535 -n 7 -e 99.999746
N -t 1.000536 -n 8 -e 99.999746
N -t 1.000536 -n 13 -e 99.999746
N -t 1.000536 -n 1 -e 99.999746
N -t 1.000536 -n 22 -e 99.999746
N -t 1.000536 -n 5 -e 99.999746
N -t 1.000536 -n 14 -e 99.999746
N -t 1.000536 -n 3 -e 99.999746
N -t 1.000536 -n 12 -e 99.999746
N -t 1.000536 -n 16 -e 99.999746
N -t 1.000536 -n 21 -e 99.999746
N -t 1.000537 -n 17 -e 99.999746
N -t 1.000537 -n 6 -e 99.999746
N -t 1.000537 -n 18 -e 99.999746
N -t 1.000537 -n 10 -e 99.999746
N -t 1.000537 -n 23 -e 99.999746
r 1.001408429 _7_ RTR  --- 0 AODV 48 [0 ffffffff 4 800] [energy 99.999746 ei 0.000 es 0.000 et 0.000 er 0.000] ------- [4:255 -1:255 30 0] [0x2 1 1 [20 0] [4 4]] (REQUEST)
r 1.001408512 _8_ RTR  --- 0 AODV 48 [0 ffffffff 4 800] [energy 99.999746 ei 0.000 es 0.000 et 0.000 er 0.000] ------- [4:255 -1:255 30 0] [0x2 1 1 [20 0] [4 4]] (REQUEST)
r 1.001408599 _13_ RTR  --- 0 AODV 48 [0 ffffffff 4 800] [energy 99.999746 ei 0.000 es 0.000 et 0.000 er 0.000] ------- [4:255 -1:255 30 0] [0x2 1 1 [20 0] [4 4]] (REQUEST)
r 1.001408654 _1_ RTR  --- 0 AODV 48 [0 ffffffff 4 800] [energy 99.999746 ei 0.000 es 0.000 et 0.000 er 0.000] ------- [4:255 -1:255 30 0] [0x2 1 1 [20 0] [4 4]] (REQUEST)
s 1.001550475 _7_ RTR  --- 0 AODV 48 [0 ffffffff 4 800] [energy 99.999746 ei 0.000 es 0.000 et 0.000 er 0.000] ------- [7:255 -1:255 29 0] [0x2 2 1 [20 0] [4 4]] (REQUEST)
N -t 1.001786 -n 8 -e 99.999491
N -t 1.001786 -n 4 -e 99.999237
N -t 1.001786 -n 1 -e 99.999491
N -t 1.001786 -n 13 -e 99.999491
N -t 1.001786 -n 5 -e 99.999491
N -t 1.001786 -n 22 -e 99.999491
N -t 1.001786 -n 3 -e 99.999491
N -t 1.001787 -n 14 -e 99.999491
N -t 1.001787 -n 12 -e 99.999491
N -t 1.001787 -n 17 -e 99.999491
N -t 1.001787 -n 16 -e 99.999491
N -t 1.001787 -n 6 -e 99.999491
N -t 1.001787 -n 10 -e 99.999491
N -t 1.001787 -n 18 -e 99.999491
N -t 1.001787 -n 21 -e 99.999491
N -t 1.001787 -n 23 -e 99.999491
N -t 1.001787 -n 9 -e 99.999746
N -t 1.001787 -n 2 -e 99.999746
N -t 1.001787 -n 19 -e 99.999746
N -t 1.001787 -n 11 -e 99.999746
s 1.002289738 _8_ RTR  --- 0 AODV 48 [0 ffffffff 4 800] [energy 99.999491 ei 0.000 es 0.000 et 0.000 er 0.001] ------- [8:255 -1:255 29 0] [0x2 2 1 [20 0] [4 4]] (REQUEST)
r 1.002658886 _8_ RTR  --- 0 AODV 48 [0 ffffffff 7 800] [energy 99.999491 ei 0.000 es 0.000 et 0.000 er 0.001] ------- [7:255 -1:255 29 0] [0x2 2 1 [20 0] [4 4]] (REQUEST)
r 1.002658904 _4_ RTR  --- 0 AODV 48 [0 ffffffff 7 800] [energy 99.999237 ei 0.000 es 0.000 et 0.001 er 0.000] ------- [7:255 -1:255 29 0] [0x2 2 1 [20 0] [4 4]] (REQUEST)
r 1.002658908 _1_ RTR  --- 0 AODV 48 [0 ffffffff 7 800] [energy 99.999491 ei 0.000 es 0.000 et 0.000 er 0.001] ------- [7:255 -1:255 29 0] [0x2 2 1 [20 0] [4 4]] (REQUEST)
r 1.002658912 _13_ RTR  --- 0 AODV 48 [0 ffffffff 7 800] [energy 99.999491 ei 0.000 es 0.000 et 0.000 er 0.001] ------- [7:255 -1:255 29 0] [0x2 2 1 [20 0] [4 4]] (REQUEST)
r 1.002659120 _5_ RTR  --- 0 AODV 48 [0 ffffffff 7 800] [energy 99.999491 ei 0.000 es 0.000 et 0.000 er 0.001] ------- [7:255 -1:255 29 0] [0x2 2 1 [20 0] [4 4]] (REQUEST)
r 1.002659132 _22_ RTR  --- 0 AODV 48 [0 ffffffff 7 800] [energy 99.999491 ei 0.000 es 0.000 et 0.000 er 0.001] ------- [7:255 -1:255 29 0] [0x2 2 1 [20 0] [4 4]] (REQUEST)
N -t 1.002884 -n 7 -e 99.998982
N -t 1.002884 -n 4 -e 99.998982
N -t 1.002885 -n 22 -e 99.999237
N -t 1.002885 -n 13 -e 99.999237
N -t 1.002885 -n 1 -e 99.999237
N -t 1.002885 -n 5 -e 99.999237
N -t 1.002885 -n 16 -e 99.999237
N -t 1.002885 -n 17 -e 99.999237
N -t 1.002885 -n 3 -e 99.999237
N -t 1.002885 -n 12 -e 99.999237
N -t 1.002885 -n 6 -e 99.999237
N -t 1.002885 -n 14 -e 99.999237
N -t 1.002885 -n 10 -e 99.999237
N -t 1.002886 -n 18 -e 99.999237
N -t 1.002886 -n 15 -e 99.999746
N -t 1.002886 -n 21 -e 99.999237
N -t 1.002886 -n 23 -e 99.999237
r 1.003757298 _7_ RTR  --- 0 AODV 48 [0 ffffffff 8 800] [energy 99.998982 ei 0.000 es 0.000 et 0.001 er 0.001] ------- [8:255 -1:255 29 0] [0x2 2 1 [20 0] [4 4]] (REQUEST)
r 1.003757398 _4_ RTR  --- 0 AODV 48 [0 ffffffff 8 800] [energy 99.998982 ei 0.000 es 0.000 et 0.001 er 0.001] ------- [8:255 -1:255 29 0] [0x2 2 1 [20 0] [4 4]] (REQUEST)
r 1.003757598 _22_ RTR  --- 0 AODV 48 [0 ffffffff 8 800] [energy 99.999237 ei 0.000 es 0.000 et 0.000 er 0.001] ------- [8:255 -1:255 29 0] [0x2 2 1 [20 0] [4 4]] (REQUEST)
s 1.005749923 _22_ RTR  --- 0 AODV 48 [0 ffffffff 7 800] [energy 99.999237 ei 0.000 es 0.000 et 0.000 er 0.001] ------- [22:255 -1:255 28 0] [0x2 3 1 [20 0] [4 4]] (REQUEST)
s 1.005820332 _13_ RTR  --- 0 AODV 48 [0 ffffffff 4 800] [energy 99.999237 ei 0.000 es 0.000 et 0.000 er 0.001] ------- [13:255 -1:255 29 0] [0x2 2 1 [20 0] [4 4]] (REQUEST)
N -t 1.005865 -n 5 -e 99.998982
N -t 1.005865 -n 17 -e 99.998982
N -t 1.005865 -n 16 -e 99.998982
N -t 1.005866 -n 3 -e 99.998982
N -t 1.005866 -n 7 -e 99.998728
N -t 1.005866 -n 8 -e 99.998728
N -t 1.005866 -n 6 -e 99.998982
N -t 1.005866 -n 10 -e 99.998982
N -t 1.005866 -n 12 -e 99.998982
N -t 1.005866 -n 1 -e 99.998982
N -t 1.005866 -n 13 -e 99.998982
N -t 1.005866 -n 4 -e 99.998728
N -t 1.005866 -n 11 -e 99.999491
N -t 1.005866 -n 15 -e 99.999491
N -t 1.005866 -n 18 -e 99.998982
N -t 1.005866 -n 2 -e 99.999491
N -t 1.005866 -n 20 -e 99.999746
N -t 1.005866 -n 9 -e 99.999491
N -t 1.005866 -n 23 -e 99.998982
N -t 1.005866 -n 14 -e 99.998982
N -t 1.005867 -n 21 -e 99.998982
N -t 1.005867 -n 19 -e 99.999491
N -t 1.005867 -n 0 -e 99.999746
r 1.006738396 _5_ RTR  --- 0 AODV 48 [0 ffffffff 16 800] [energy 99.998982 ei 0.000 es 0.000 et 0.000 er 0.001] ------- [22:255 -1:255 28 0] [0x2 3 1 [20 0] [4 4]] (REQUEST)
r 1.006738430 _17_ RTR  --- 0 AODV 48 [0 ffffffff 16 800] [energy 99.998982 ei 0.000 es 0.000 et 0.000 er 0.001] ------- [22:255 -1:255 28 0] [0x2 3 1 [20 0] [4 4]] (REQUEST)
r 1.006738495 _16_ RTR  --- 0 AODV 48 [0 ffffffff 16 800] [energy 99.998982 ei 0.000 es 0.000 et 0.000 er 0.001] ------- [22:255 -1:255 28 0] [0x2 3 1 [20 0] [4 4]] (REQUEST)
r 1.006738547 _3_ RTR  --- 0 AODV 48 [0 ffffffff 16 800] [energy 99.998982 ei 0.000 es 0.000 et 0.000 er 0.001] ------- [22:255 -1:255 28 0] [0x2 3 1 [20 0] [4 4]] (REQUEST)
r 1.006738579 _7_ RTR  --- 0 AODV 48 [0 ffffffff 16 800] [energy 99.998728 ei 0.000 es 0.000 et 0.001 er 0.001] ------- [22:255 -1:255 28 0] [0x2 3 1 [20 0] [4 4]] (REQUEST)
r 1.006738634 _8_ RTR  --- 0 AODV 48 [0 ffffffff 16 800] [energy 99.998728 ei 0.000 es 0.000 et 0.001 er 0.001] ------- [22:255 -1:255 28 0] [0x2 3 1 [20 0] [4 4]] (REQUEST)
r 1.006738721 _6_ RTR  --- 0 AODV 48 [0 ffffffff 16 800] [energy 99.998982 ei 0.000 es 0.000 et 0.000 er 0.001] ------- [22:255 -1:255 28 0] [0x2 3 1 [20 0] [4 4]] (REQUEST)
N -t 1.007668 -n 1 -e 99.998728
N -t 1.007668 -n 7 -e 99.998474
N -t 1.007668 -n 4 -e 99.998474
N -t 1.007668 -n 14 -e 99.998728
N -t 1.007669 -n 5 -e 99.998728
N -t 1.007669 -n 8 -e 99.998474
N -t 1.007669 -n 3 -e 99.998728
N -t 1.007669 -n 21 -e 99.998728
N -t 1.007669 -n 22 -e 99.998474
N -t 1.007669 -n 12 -e 99.998728
N -t 1.007669 -n 18 -e 99.998728
N -t 1.007669 -n 23 -e 99.998728
N -t 1.007669 -n 6 -e 99.998728
N -t 1.007669 -n 9 -e 99.999237
N -t 1.007669 -n 10 -e 99.998728
N -t 1.007669 -n 19 -e 99.999237
N -t 1.007669 -n 2 -e 99.999237
N -t 1.007669 -n 17 -e 99.998728
N -t 1.007669 -n 16 -e 99.998728
N -t 1.007670 -n 11 -e 99.999237
s 1.007876512 _17_ RTR  --- 0 AODV 48 [0 ffffffff 16 800] [energy 99.998728 ei 0.000 es 0.000 et 0.000 er 0.001] ------- [17:255 -1:255 27 0] [0x2 4 1 [20 0] [4 4]] (REQUEST)
s 1.008486774 _6_ RTR  --- 0 AODV 48 [0 ffffffff 16 800] [energy 99.998728 ei 0.000 es 0.000 et 0.000 er 0.001] ------- [6:255 -1:255 27 0] [0x2 4 1 [20 0] [4 4]] (REQUEST)
r 1.008540950 _1_ RTR  --- 0 AODV 48 [0 ffffffff d 800] [energy 99.998728 ei 0.000 es 0.000 et 0.000 er 0.001] ------- [13:255 -1:255 29 0] [0x2 2 1 [20 0] [4 4]] (REQUEST)
r 1.008541299 _7_ RTR  --- 0 AODV 48 [0 ffffffff d 800] [energy 99.998474 ei 0.000 es 0.000 et 0.001 er 0.001] ------- [13:255 -1:255 29 0] [0x2 2 1 [20 0] [4 4]] (REQUEST)
r 1.008541461 _4_ RTR  --- 0 AODV 48 [0 ffffffff d 800] [energy 99.998474 ei 0.000 es 0.000 et 0.001 er 0.001] ------- [13:255 -1:255 29 0] [0x2 2 1 [20 0] [4 4]] (REQUEST)
r 1.008541483 _14_ RTR  --- 0 AODV 48 [0 ffffffff d 800] [energy 99.998728 ei 0.000 es 0.000 et 0.000 er 0.001] ------- [13:255 -1:255 29 0] [0x2 2 1 [20 0] [4 4]] (REQUEST)
r 1.008541541 _5_ RTR  --- 0 AODV 48 [0 ffffffff d 800] [energy 99.998728 ei 0.000 es 0.000 et 0.000 er 0.001] ------- [13:255 -1:255 29 0] [0x2 2 1 [20 0] [4 4]] (REQUEST)
s 1.009047771 _5_ RTR  --- 0 AODV 48 [0 ffffffff 7 800] [energy 99.998728 ei 0.000 es 0.000 et 0.000 er 0.001] ------- [5:255 -1:255 28 0] [0x2 3 1 [20 0] [4 4]] (REQUEST)
N -t 1.009143 -n 3 -e 99.998474
N -t 1.009143 -n 12 -e 99.998474
N -t 1.009143 -n 22 -e 99.998219
N -t 1.009143 -n 6 -e 99.998474
N -t 1.009143 -n 1 -e 99.998474
N -t 1.009143 -n 10 -e 99.998474
N -t 1.009143 -n 7 -e 99.998219
N -t 1.009143 -n 13 -e 99.998219
N -t 1.009144 -n 18 -e 99.998474
N -t 1.009144 -n 17 -e 99.998474
N -t 1.009144 -n 8 -e 99.998219
N -t 1.009144 -n 2 -e 99.998982
N -t 1.009144 -n 9 -e 99.998982
N -t 1.009144 -n 16 -e 99.998474
N -t 1.009144 -n 23 -e 99.998474
N -t 1.009144 -n 11 -e 99.998982
N -t 1.009144 -n 4 -e 99.998219
N -t 1.009144 -n 14 -e 99.998474
N -t 1.009144 -n 21 -e 99.998474
N -t 1.009144 -n 19 -e 99.998982
N -t 1.009144 -n 0 -e 99.999491
N -t 1.009144 -n 15 -e 99.999237
N -t 1.009144 -n 20 -e 99.999491
s 1.009400209 _1_ RTR  --- 0 AODV 48 [0 ffffffff 4 800] [energy 99.998474 ei 0.000 es 0.000 et 0.000 er 0.002] ------- [1:255 -1:255 29 0] [0x2 2 1 [20 0] [4 4]] (REQUEST)
r 1.010016023 _3_ RTR  --- 0 AODV 48 [0 ffffffff 5 800] [energy 99.998474 ei 0.000 es 0.000 et 0.000 er 0.002] ------- [5:255 -1:255 28 0] [0x2 3 1 [20 0] [4 4]] (REQUEST)
r 1.010016229 _12_ RTR  --- 0 AODV 48 [0 ffffffff 5 800] [energy 99.998474 ei 0.000 es 0.000 et 0.000 er 0.002] ------- [5:255 -1:255 28 0] [0x2 3 1 [20 0] [4 4]] (REQUEST)
r 1.010016244 _22_ RTR  --- 0 AODV 48 [0 ffffffff 5 800] [energy 99.998219 ei 0.000 es 0.000 et 0.001 er 0.001] ------- [5:255 -1:255 28 0] [0x2 3 1 [20 0] [4 4]] (REQUEST)
r 1.010016298 _6_ RTR  --- 0 AODV 48 [0 ffffffff 5 800] [energy 99.998474 ei 0.000 es 0.000 et 0.000 er 0.002] ------- [5:255 -1:255 28 0] [0x2 3 1 [20 0] [4 4]] (REQUEST)
r 1.010016366 _1_ RTR  --- 0 AODV 48 [0 ffffffff 5 800] [energy 99.998474 ei 0.000 es 0.000 et 0.000 er 0.002] ------- [5:255 -1:255 28 0] [0x2 3 1 [20 0] [4 4]] (REQUEST)
r 1.010016387 _10_ RTR  --- 0 AODV 48 [0 ffffffff 5 800] [energy 99.998474 ei 0.000 es 0.000 et 0.000 er 0.002] ------- [5:255 -1:255 28 0] [0x2 3 1 [20 0] [4 4]] (REQUEST)
r 1.010016415 _7_ RTR  --- 0 AODV 48 [0 ffffffff 5 800] [energy 99.998219 ei 0.000 es 0.000 et 0.001 er 0.001] ------- [5:255 -1:255 28 0] [0x2 3 1 [20 0] [4 4]] (REQUEST)
r 1.010016449 _13_ RTR  --- 0 AODV 48 [0 ffffffff 5 800] [energy 99.998219 ei 0.000 es 0.000 et 0.001 er 0.001] ------- [5:255 -1:255 28 0] [0x2 3 1 [20 0] [4 4]] (REQUEST)
N -t 1.010161 -n 10 -e 99.998219
N -t 1.010162 -n 3 -e 99.998219
N -t 1.010162 -n 12 -e 99.998219
N -t 1.010162 -n 11 -e 99.998728
N -t 1.010162 -n 5 -e 99.997965
N -t 1.010162 -n 2 -e 99.998728
N -t 1.010162 -n 22 -e 99.997965
N -t 1.010162 -n 9 -e 99.998728
N -t 1.010162 -n 18 -e 99.998219
N -t 1.010162 -n 23 -e 99.998219
N -t 1.010162 -n 0 -e 99.999237
N -t 1.010162 -n 17 -e 99.998219
N -t 1.010162 -n 19 -e 99.998728
N -t 1.010162 -n 1 -e 99.998219
N -t 1.010162 -n 13 -e 99.997965
N -t 1.010162 -n 7 -e 99.997965
N -t 1.010162 -n 16 -e 99.998219
N -t 1.010163 -n 21 -e 99.998219
N -t 1.010163 -n 8 -e 99.997965
N -t 1.010163 -n 24 -e 99.999746
N -t 1.010163 -n 14 -e 99.998219
N -t 1.010163 -n 20 -e 99.999237
N -t 1.010163 -n 4 -e 99.997965
N -t 1.010163 -n 15 -e 99.998982
s 1.010975114 _3_ RTR  --- 0 AODV 48 [0 ffffffff 16 800] [energy 99.998219 ei 0.000 es 0.000 et 0.000 er 0.002] ------- [3:255 -1:255 27 0] [0x2 4 1 [20 0] [4 4]] (REQUEST)
r 1.011034388 _10_ RTR  --- 0 AODV 48 [0 ffffffff 6 800] [energy 99.998219 ei 0.000 es 0.000 et 0.000 er 0.002] ------- [6:255 -1:255 27 0] [0x2 4 1 [20 0] [4 4]] (REQUEST)
r 1.011034581 _3_ RTR  --- 0 AODV 48 [0 ffffffff 6 800] [energy 99.998219 ei 0.000 es 0.000 et 0.000 er 0.002] ------- [6:255 -1:255 27 0] [0x2 4 1 [20 0] [4 4]] (REQUEST)
r 1.011034598 _12_ RTR  --- 0 AODV 48 [0 ffffffff 6 800] [energy 99.998219 ei 0.000 es 0.000 et 0.000 er 0.002] ------- [6:255 -1:255 27 0] [0x2 4 1 [20 0] [4 4]] (REQUEST)
r 1.011034807 _11_ RTR  --- 0 AODV 48 [0 ffffffff 6 800] [energy 99.998728 ei 0.000 es 0.000 et 0.000 er 0.001] ------- [6:255 -1:255 27 0] [0x2 4 1 [20 0] [4 4]] (REQUEST)
r 1.011034825 _5_ RTR  --- 0 AODV 48 [0 ffffffff 6 800] [energy 99.997965 ei 0.000 es 0.000 et 0.001 er 0.002] ------- [6:255 -1:255 27 0] [0x2 4 1 [20 0] [4 4]] (REQUEST)
r 1.011034940 _2_ RTR  --- 0 AODV 48 [0 ffffffff 6 800] [energy 99.998728 ei 0.000 es 0.000 et 0.000 er 0.001] ------- [6:255 -1:255 27 0] [0x2 4 1 [20 0] [4 4]] (REQUEST)
r 1.011035096 _22_ RTR  --- 0 AODV 48 [0 ffffffff 6 800] [energy 99.997965 ei 0.000 es 0.000 et 0.001 er 0.002] ------- [6:255 -1:255 27 0] [0x2 4 1 [20 0] [4 4]] (REQUEST)
r 1.011035097 _9_ RTR  --- 0 AODV 48 [0 ffffffff 6 800] [energy 99.998728 ei 0.000 es 0.000 et 0.000 er 0.001] ------- [6:255 -1:255 27 0] [0x2 4 1 [20 0] [4 4]] (REQUEST)
r 1.011035117 _18_ RTR  --- 0 AODV 48 [0 ffffffff 6 800] [energy 99.998219 ei 0.000 es 0.000 et 0.000 er 0.002] ------- [6:255 -1:255 27 0] [0x2 4 1 [20 0] [4 4]] (REQUEST)
s 1.011122362 _14_ RTR  --- 0 AODV 48 [0 ffffffff d 800] [energy 99.998219 ei 0.000 es 0.000 et 0.000 er 0.002] ------- [14:255 -1:255 28 0] [0x2 3 1 [20 0] [4 4]] (REQUEST)
N -t 1.011460 -n 12 -e 99.997965
N -t 1.011460 -n 5 -e 99.997710
N -t 1.011460 -n 6 -e 99.997710
N -t 1.011460 -n 10 -e 99.997965
N -t 1.011460 -n 22 -e 99.997710
N -t 1.011460 -n 2 -e 99.998474
N -t 1.011460 -n 18 -e 99.997965
N -t 1.011460 -n 1 -e 99.997965
N -t 1.011460 -n 11 -e 99.998474
N -t 1.011460 -n 9 -e 99.998474
N -t 1.011460 -n 13 -e 99.997710
N -t 1.011460 -n 7 -e 99.997710
N -t 1.011460 -n 23 -e 99.997965
N -t 1.011461 -n 17 -e 99.997965
N -t 1.011461 -n 19 -e 99.998474
N -t 1.011461 -n 16 -e 99.997965
N -t 1.011461 -n 21 -e 99.997965
N -t 1.011461 -n 8 -e 99.997710
N -t 1.011461 -n 14 -e 99.997965
N -t 1.011461 -n 0 -e 99.998982
N -t 1.011461 -n 4 -e 99.997710
N -t 1.011461 -n 20 -e 99.998982
N -t 1.011461 -n 15 -e 99.998728
N -t 1.011461 -n 24 -e 99.999491
r 1.012332832 _12_ RTR  --- 0 AODV 48 [0 ffffffff 3 800] [energy 99.997965 ei 0.000 es 0.000 et 0.000 er 0.002] ------- [3:255 -1:255 27 0] [0x2 4 1 [20 0] [4 4]] (REQUEST)
r 1.012332833 _5_ RTR  --- 0 AODV 48 [0 ffffffff 3 800] [energy 99.997710 ei 0.000 es 0.000 et 0.001 er 0.002] ------- [3:255 -1:255 27 0] [0x2 4 1 [20 0] [4 4]] (REQUEST)
r 1.012332863 _6_ RTR  --- 0 AODV 48 [0 ffffffff 3 800] [energy 99.997710 ei 0.000 es 0.000 et 0.001 er 0.002] ------- [3:255 -1:255 27 0] [0x2 4 1 [20 0] [4 4]] (REQUEST)
r 1.012332953 _10_ RTR  --- 0 AODV 48 [0 ffffffff 3 800] [energy 99.997965 ei 0.000 es 0.000 et 0.000 er 0.002] ------- [3:255 -1:255 27 0] [0x2 4 1 [20 0] [4 4]] (REQUEST)
r 1.012333205 _22_ RTR  --- 0 AODV 48 [0 ffffffff 3 800] [energy 99.997710 ei 0.000 es 0.000 et 0.001 er 0.002] ------- [3:255 -1:255 27 0] [0x2 4 1 [20 0] [4 4]] (REQUEST)
r 1.012333323 _2_ RTR  --- 0 AODV 48 [0 ffffffff 3 800] [energy 99.998474 ei 0.000 es 0.000 et 0.000 er 0.002] ------- [3:255 -1:255 27 0] [0x2 4 1 [20 0] [4 4]] (REQUEST)
r 1.012333346 _18_ RTR  --- 0 AODV 48 [0 ffffffff 3 800] [energy 99.997965 ei 0.000 es 0.000 et 0.000 er 0.002] ------- [3:255 -1:255 27 0] [0x2 4 1 [20 0] [4 4]] (REQUEST)
r 1.012333370 _1_ RTR  --- 0 AODV 48 [0 ffffffff 3 800] [energy 99.997965 ei 0.000 es 0.000 et 0.000 er 0.002] ------- [3:255 -1:255 27 0] [0x2 4 1 [20 0] [4 4]] (REQUEST)
r 1.012333372 _11_ RTR  --- 0 AODV 48 [0 ffffffff 3 800] [energy 99.998474 ei 0.000 es 0.000 et 0.000 er 0.002] ------- [3:255 -1:255 27 0] [0x2 4 1 [20 0] [4 4]] (REQUEST)
r 1.012333393 _9_ RTR  --- 0 AODV 48 [0 ffffffff 3 800] [energy 99.998474 ei 0.000 es 0.000 et 0.000 er 0.002] ------- [3:255 -1:255 27 0] [0x2 4 1 [20 0] [4 4]] (REQUEST)
N -t 1.012458 -n 13 -e 99.997456
N -t 1.012459 -n 7 -e 99.997456
N -t 1.012459 -n 5 -e 99.997456
N -t 1.012459 -n 14 -e 99.997710
N -t 1.012459 -n 4 -e 99.997456
N -t 1.012459 -n 3 -e 99.997456
N -t 1.012459 -n 8 -e 99.997456
N -t 1.012459 -n 12 -e 99.997710
N -t 1.012459 -n 22 -e 99.997456
N -t 1.012459 -n 21 -e 99.997710
N -t 1.012459 -n 18 -e 99.997710
N -t 1.012459 -n 23 -e 99.997710
N -t 1.012459 -n 6 -e 99.997456
N -t 1.012459 -n 9 -e 99.998219
N -t 1.012460 -n 10 -e 99.997710
N -t 1.012460 -n 2 -e 99.998219
N -t 1.012460 -n 19 -e 99.998219
N -t 1.012460 -n 17 -e 99.997710
N -t 1.012460 -n 16 -e 99.997710
N -t 1.012460 -n 11 -e 99.998219
r 1.013331457 _13_ RTR  --- 0 AODV 48 [0 ffffffff 1 800] [energy 99.997456 ei 0.000 es 0.000 et 0.001 er 0.002] ------- [1:255 -1:255 29 0] [0x2 2 1 [20 0] [4 4]] (REQUEST)
r 1.013331801 _7_ RTR  --- 0 AODV 48 [0 ffffffff 1 800] [energy 99.997456 ei 0.000 es 0.000 et 0.001 er 0.002] ------- [1:255 -1:255 29 0] [0x2 2 1 [20 0] [4 4]] (REQUEST)
r 1.013331964 _5_ RTR  --- 0 AODV 48 [0 ffffffff 1 800] [energy 99.997456 ei 0.000 es 0.000 et 0.001 er 0.002] ------- [1:255 -1:255 29 0] [0x2 2 1 [20 0] [4 4]] (REQUEST)
r 1.013332021 _14_ RTR  --- 0 AODV 48 [0 ffffffff 1 800] [energy 99.997710 ei 0.000 es 0.000 et 0.000 er 0.002] ------- [1:255 -1:255 29 0] [0x2 2 1 [20 0] [4 4]] (REQUEST)
r 1.013332023 _4_ RTR  --- 0 AODV 48 [0 ffffffff 1 800] [energy 99.997456 ei 0.000 es 0.000 et 0.001 er 0.002] ------- [1:255 -1:255 29 0] [0x2 2 1 [20 0] [4 4]] (REQUEST)
r 1.013332159 _3_ RTR  --- 0 AODV 48 [0 ffffffff 1 800] [energy 99.997456 ei 0.000 es 0.000 et 0.001 er 0.002] ------- [1:255 -1:255 29 0] [0x2 2 1 [20 0] [4 4]] (REQUEST)
s 1.013447064 _11_ RTR  --- 0 AODV 48 [0 ffffffff 6 800] [energy 99.998219 ei 0.000 es 0.000 et 0.000 er 0.002] ------- [11:255 -1:255 26 0] [0x2 5 1 [20 0] [4 4]] (REQUEST)
N -t 1.013478 -n 21 -e 99.997456
N -t 1.013478 -n 13 -e 99.997202
N -t 1.013478 -n 1 -e 99.997202
N -t 1.013478 -n 18 -e 99.997456
N -t 1.013478 -n 23 -e 99.997456
N -t 1.013478 -n 7 -e 99.997202
N -t 1.013478 -n 4 -e 99.997202
N -t 1.013478 -n 19 -e 99.997965
N -t 1.013478 -n 9 -e 99.997965
N -t 1.013478 -n 5 -e 99.997202
N -t 1.013478 -n 12 -e 99.997456
N -t 1.013478 -n 3 -e 99.997202
N -t 1.013478 -n 2 -e 99.997965
N -t 1.013478 -n 8 -e 99.997202
N -t 1.013478 -n 6 -e 99.997202
N -t 1.013479 -n 22 -e 99.997202
N -t 1.013479 -n 10 -e 99.997456
N -t 1.013842 -n 16 -e 99.997456
N -t 1.013842 -n 22 -e 99.997092
N -t 1.013843 -n 15 -e 99.998474
N -t 1.013843 -n 5 -e 99.997092
N -t 1.013843 -n 20 -e 99.998728
N -t 1.013843 -n 3 -e 99.997092
N -t 1.013843 -n 6 -e 99.997092
N -t 1.013843 -n 10 -e 99.997347
N -t 1.013843 -n 8 -e 99.997092
N -t 1.013843 -n 7 -e 99.997092
N -t 1.013843 -n 12 -e 99.997347
N -t 1.013843 -n 11 -e 99.997965
N -t 1.013843 -n 1 -e 99.997092
N -t 1.013843 -n 13 -e 99.997092
N -t 1.013843 -n 4 -e 99.997092
N -t 1.013843 -n 2 -e 99.997855
N -t 1.013843 -n 0 -e 99.998728
N -t 1.013843 -n 18 -e 99.997346
N -t 1.013844 -n 9 -e 99.997855
r 1.014350536 _21_ RTR  --- 0 AODV 48 [0 ffffffff e 800] [energy 99.997456 ei 0.000 es 0.000 et 0.000 er 0.003] ------- [14:255 -1:255 28 0] [0x2 3 1 [20 0] [4 4]] (REQUEST)
r 1.014350641 _13_ RTR  --- 0 AODV 48 [0 ffffffff e 800] [energy 99.997092 ei 0.000 es 0.000 et 0.001 er 0.002] ------- [14:255 -1:255 28 0] [0x2 3 1 [20 0] [4 4]] (REQUEST)
r 1.014350672 _1_ RTR  --- 0 AODV 48 [0 ffffffff e 800] [energy 99.997092 ei 0.000 es 0.000 et 0.001 er 0.002] ------- [14:255 -1:255 28 0] [0x2 3 1 [20 0] [4 4]] (REQUEST)
r 1.014714942 _16_ RTR  --- 0 AODV 48 [0 ffffffff 11 800] [energy 99.997456 ei 0.000 es 0.000 et 0.000 er 0.003] ------- [17:255 -1:255 27 0] [0x2 4 1 [20 0] [4 4]] (REQUEST)
r 1.014715521 _15_ RTR  --- 0 AODV 48 [0 ffffffff 11 800] [energy 99.998474 ei 0.000 es 0.000 et 0.000 er 0.002] ------- [17:255 -1:255 27 0] [0x2 4 1 [20 0] [4 4]] (REQUEST)
N -t 1.015185 -n 10 -e 99.997092
N -t 1.015186 -n 0 -e 99.998474
N -t 1.015186 -n 6 -e 99.996838
N -t 1.015186 -n 12 -e 99.997092
N -t 1.015186 -n 2 -e 99.997601
N -t 1.015186 -n 3 -e 99.996838
N -t 1.015186 -n 24 -e 99.999237
N -t 1.015186 -n 9 -e 99.997601
N -t 1.015186 -n 5 -e 99.996838
N -t 1.015186 -n 18 -e 99.997092
N -t 1.015186 -n 23 -e 99.997202
N -t 1.015186 -n 22 -e 99.996838
N -t 1.015186 -n 19 -e 99.997710
N -t 1.015186 -n 17 -e 99.996947
N -t 1.015186 -n 20 -e 99.998474
N -t 1.015186 -n 16 -e 99.997202
N -t 1.015187 -n 1 -e 99.996838
N -t 1.015187 -n 21 -e 99.997202
N -t 1.015187 -n 13 -e 99.996838
N -t 1.015187 -n 7 -e 99.996838
N -t 1.015187 -n 15 -e 99.998219
s 1.015335772 _16_ RTR  --- 0 AODV 48 [0 ffffffff 16 800] [energy 99.997202 ei 0.000 es 0.000 et 0.000 er 0.003] ------- [16:255 -1:255 27 0] [0x2 4 1 [20 0] [4 4]] (REQUEST)
r 1.016058440 _10_ RTR  --- 0 AODV 48 [0 ffffffff b 800] [energy 99.997092 ei 0.000 es 0.000 et 0.000 er 0.003] ------- [11:255 -1:255 26 0] [0x2 5 1 [20 0] [4 4]] (REQUEST)
r 1.016058505 _0_ RTR  --- 0 AODV 48 [0 ffffffff b 800] [energy 99.998474 ei 0.000 es 0.000 et 0.000 er 0.002] ------- [11:255 -1:255 26 0] [0x2 5 1 [20 0] [4 4]] (REQUEST)
r 1.016058529 _6_ RTR  --- 0 AODV 48 [0 ffffffff b 800] [energy 99.996838 ei 0.000 es 0.000 et 0.001 er 0.003] ------- [11:255 -1:255 26 0] [0x2 5 1 [20 0] [4 4]] (REQUEST)
r 1.016058754 _12_ RTR  --- 0 AODV 48 [0 ffffffff b 800] [energy 99.997092 ei 0.000 es 0.000 et 0.000 er 0.003] ------- [11:255 -1:255 26 0] [0x2 5 1 [20 0] [4 4]] (REQUEST)
r 1.016058767 _2_ RTR  --- 0 AODV 48 [0 ffffffff b 800] [energy 99.997601 ei 0.000 es 0.000 et 0.000 er 0.002] ------- [11:255 -1:255 26 0] [0x2 5 1 [20 0] [4 4]] (REQUEST)
r 1.016058811 _3_ RTR  --- 0 AODV 48 [0 ffffffff b 800] [energy 99.996838 ei 0.000 es 0.000 et 0.001 er 0.003] ------- [11:255 -1:255 26 0] [0x2 5 1 [20 0] [4 4]] (REQUEST)
s 1.016166588 _0_ RTR  --- 0 AODV 48 [0 ffffffff b 800] [energy 99.998474 ei 0.000 es 0.000 et 0.000 er 0.002] ------- [0:255 -1:255 25 0] [0x2 6 1 [20 0] [4 4]] (REQUEST)
N -t 1.016582 -n 11 -e 99.997202
N -t 1.016582 -n 24 -e 99.998982
N -t 1.016582 -n 10 -e 99.996838
N -t 1.016583 -n 6 -e 99.996584
N -t 1.016583 -n 2 -e 99.997346
N -t 1.016583 -n 12 -e 99.996838
N -t 1.016583 -n 9 -e 99.997346
N -t 1.016583 -n 3 -e 99.996583
N -t 1.016583 -n 18 -e 99.996838
N -t 1.016583 -n 19 -e 99.997456
N -t 1.016583 -n 23 -e 99.996947
N -t 1.016583 -n 5 -e 99.996583
N -t 1.016583 -n 20 -e 99.998219
N -t 1.016583 -n 17 -e 99.996693
N -t 1.016583 -n 22 -e 99.996584
s 1.016939297 _12_ RTR  --- 0 AODV 48 [0 ffffffff 5 800] [energy 99.996838 ei 0.000 es 0.000 et 0.000 er 0.003] ------- [12:255 -1:255 27 0] [0x2 4 1 [20 0] [4 4]] (REQUEST)
N -t 1.017029 -n 17 -e 99.996559
N -t 1.017029 -n 22 -e 99.996450
N -t 1.017029 -n 15 -e 99.997965
N -t 1.017029 -n 8 -e 99.996838
N -t 1.017029 -n 20 -e 99.998085
N -t 1.017029 -n 5 -e 99.996450
N -t 1.017030 -n 3 -e 99.996449
N -t 1.017030 -n 7 -e 99.996583
N -t 1.017030 -n 6 -e 99.996449
N -t 1.017030 -n 10 -e 99.996704
N -t 1.017030 -n 12 -e 99.996704
N -t 1.017030 -n 1 -e 99.996583
N -t 1.017030 -n 11 -e 99.997067
N -t 1.017030 -n 4 -e 99.996838
N -t 1.017030 -n 13 -e 99.996583
N -t 1.017030 -n 2 -e 99.997212
r 1.017455073 _11_ RTR  --- 0 AODV 48 [0 ffffffff 0 800] [energy 99.997067 ei 0.000 es 0.000 et 0.001 er 0.002] ------- [0:255 -1:255 25 0] [0x2 6 1 [20 0] [4 4]] (REQUEST)
r 1.017455195 _24_ RTR  --- 0 AODV 48 [0 ffffffff 0 800] [energy 99.998982 ei 0.000 es 0.000 et 0.000 er 0.001] ------- [0:255 -1:255 25 0] [0x2 6 1 [20 0] [4 4]] (REQUEST)
s 1.017808587 _9_ RTR  --- 0 AODV 48 [0 ffffffff 6 800] [energy 99.997346 ei 0.000 es 0.000 et 0.000 er 0.003] ------- [9:255 -1:255 26 0] [0x2 5 1 [20 0] [4 4]] (REQUEST)
r 1.017902211 _15_ RTR  --- 0 AODV 48 [0 ffffffff 10 800] [energy 99.997965 ei 0.000 es 0.000 et 0.000 er 0.002] ------- [16:255 -1:255 27 0] [0x2 4 1 [20 0] [4 4]] (REQUEST)
N -t 1.018164 -n 18 -e 99.996583
N -t 1.018164 -n 23 -e 99.996693
N -t 1.018164 -n 2 -e 99.996958
N -t 1.018164 -n 19 -e 99.997202
N -t 1.018164 -n 12 -e 99.996449
N -t 1.018164 -n 21 -e 99.996947
N -t 1.018164 -n 6 -e 99.996195
N -t 1.018164 -n 3 -e 99.996195
N -t 1.018164 -n 10 -e 99.996449
N -t 1.018165 -n 5 -e 99.996195
N -t 1.018165 -n 11 -e 99.996813
N -t 1.018165 -n 14 -e 99.996947
N -t 1.018165 -n 1 -e 99.996329
N -t 1.018165 -n 13 -e 99.996329
N -t 1.018165 -n 0 -e 99.997710
N -t 1.018165 -n 22 -e 99.996196
N -t 1.018165 -n 7 -e 99.996329
N -t 1.018165 -n 4 -e 99.996583
N -t 1.018165 -n 17 -e 99.996305
s 1.018637060 _10_ RTR  --- 0 AODV 48 [0 ffffffff 5 800] [energy 99.996449 ei 0.000 es 0.000 et 0.000 er 0.004] ------- [10:255 -1:255 27 0] [0x2 4 1 [20 0] [4 4]] (REQUEST)
s 1.018657436 _18_ RTR  --- 0 AODV 48 [0 ffffffff 6 800] [energy 99.996583 ei 0.000 es 0.000 et 0.000 er 0.003] ------- [18:255 -1:255 26 0] [0x2 5 1 [20 0] [4 4]] (REQUEST)
r 1.019036778 _18_ RTR  --- 0 AODV 48 [0 ffffffff 9 800] [energy 99.996583 ei 0.000 es 0.000 et 0.000 er 0.003] ------- [9:255 -1:255 26 0] [0x2 5 1 [20 0] [4 4]] (REQUEST)
r 1.019036805 _23_ RTR  --- 0 AODV 48 [0 ffffffff 9 800] [energy 99.996693 ei 0.000 es 0.000 et 0.000 er 0.003] ------- [9:255 -1:255 26 0] [0x2 5 1 [20 0] [4 4]] (REQUEST)
r 1.019036849 _2_ RTR  --- 0 AODV 48 [0 ffffffff 9 800] [energy 99.996958 ei 0.000 es 0.000 et 0.000 er 0.003] ------- [9:255 -1:255 26 0] [0x2 5 1 [20 0] [4 4]] (REQUEST)
r 1.019036849 _19_ RTR  --- 0 AODV 48 [0 ffffffff 9 800] [energy 99.997202 ei 0.000 es 0.000 et 0.000 er 0.003] ------- [9:255 -1:255 26 0] [0x2 5 1 [20 0] [4 4]] (REQUEST)
r 1.019037153 _12_ RTR  --- 0 AODV 48 [0 ffffffff 9 800] [energy 99.996449 ei 0.000 es 0.000 et 0.000 er 0.004] ------- [9:255 -1:255 26 0] [0x2 5 1 [20 0] [4 4]] (REQUEST)
r 1.019037282 _21_ RTR  --- 0 AODV 48 [0 ffffffff 9 800] [energy 99.996947 ei 0.000 es 0.000 et 0.000 er 0.003] ------- [9:255 -1:255 26 0] [0x2 5 1 [20 0] [4 4]] (REQUEST)
r 1.019037387 _6_ RTR  --- 0 AODV 48 [0 ffffffff 9 800] [energy 99.996195 ei 0.000 es 0.000 et 0.001 er 0.003] ------- [9:255 -1:255 26 0] [0x2 5 1 [20 0] [4 4]] (REQUEST)
r 1.019037398 _3_ RTR  --- 0 AODV 48 [0 ffffffff 9 800] [energy 99.996195 ei 0.000 es 0.000 et 0.001 er 0.003] ------- [9:255 -1:255 26 0] [0x2 5 1 [20 0] [4 4]] (REQUEST)
r 1.019037402 _10_ RTR  --- 0 AODV 48 [0 ffffffff 9 800] [energy 99.996449 ei 0.000 es 0.000 et 0.000 er 0.004] ------- [9:255 -1:255 26 0] [0x2 5 1 [20 0] [4 4]] (REQUEST)
N -t 1.019062 -n 6 -e 99.995941
N -t 1.019063 -n 12 -e 99.996195
N -t 1.019063 -n 3 -e 99.995941
N -t 1.019063 -n 11 -e 99.996558
N -t 1.019063 -n 5 -e 99.995941
N -t 1.019063 -n 2 -e 99.996703
N -t 1.019063 -n 9 -e 99.996583
N -t 1.019063 -n 18 -e 99.996329
N -t 1.019063 -n 22 -e 99.995941
N -t 1.019063 -n 0 -e 99.997456
N -t 1.019063 -n 23 -e 99.996438
N -t 1.019063 -n 17 -e 99.996050
N -t 1.019063 -n 19 -e 99.996947
N -t 1.019064 -n 1 -e 99.996074
N -t 1.019064 -n 16 -e 99.996438
N -t 1.019064 -n 13 -e 99.996074
N -t 1.019064 -n 7 -e 99.996075
N -t 1.019064 -n 21 -e 99.996693
N -t 1.019064 -n 24 -e 99.998728
N -t 1.019064 -n 20 -e 99.997831
N -t 1.019064 -n 8 -e 99.996583
N -t 1.019064 -n 14 -e 99.996693
N -t 1.019064 -n 15 -e 99.997710
N -t 1.019064 -n 4 -e 99.996329
s 1.019546006 _2_ RTR  --- 0 AODV 48 [0 ffffffff 6 800] [energy 99.996703 ei 0.000 es 0.000 et 0.000 er 0.003] ------- [2:255 -1:255 26 0] [0x2 5 1 [20 0] [4 4]] (REQUEST)
r 1.019935491 _6_ RTR  --- 0 AODV 48 [0 ffffffff a 800] [energy 99.995941 ei 0.000 es 0.000 et 0.001 er 0.004] ------- [10:255 -1:255 27 0] [0x2 4 1 [20 0] [4 4]] (REQUEST)
r 1.019935764 _12_ RTR  --- 0 AODV 48 [0 ffffffff a 800] [energy 99.996195 ei 0.000 es 0.000 et 0.000 er 0.004] ------- [10:255 -1:255 27 0] [0x2 4 1 [20 0] [4 4]] (REQUEST)
r 1.019935773 _3_ RTR  --- 0 AODV 48 [0 ffffffff a 800] [energy 99.995941 ei 0.000 es 0.000 et 0.001 er 0.004] ------- [10:255 -1:255 27 0] [0x2 4 1 [20 0] [4 4]] (REQUEST)