n -t * -s 0  -x 322.45137976596658 -y 352.27178128076332 -Z 0 -z 50  -v circle -c green
n -t * -s 1  -x 789.78498223693339 -y 732.95716491199892 -Z 0 -z 50  -v circle -c green
n -t * -s 2  -x 513.83834495853557 -y 64.850974485674399 -Z 0 -z 50  -v circle -c green
n -t * -s 3  -x 437.91022591195542 -y 765.73352178825701 -Z 0 -z 50  -v circle -c green
n -t * -s 4  -x 104.12586904323001 -y 34.784807653531807 -Z 0 -z 50  -v circle -c green
n -t * -s 5  -x 785.32779113637639 -y 3.3485032633638485 -Z 0 -z 50  -v circle -c green
n -t * -s 6  -x 347.86793419526327 -y 493.09601583196593 -Z 0 -z 50  -v circle -c green
n -t * -s 7  -x 330.92260981487232 -y 653.04252684723701 -Z 0 -z 50  -v circle -c green
n -t * -s 8  -x 607.18590189106101 -y 778.76246645057688 -Z 0 -z 50  -v circle -c green
n -t * -s 9  -x 825.96704355718896 -y 22.480852539875009 -Z 0 -z 50  -v circle -c green
n -t * -s 10  -x 294.61079709912218 -y 418.93347595768677 -Z 0 -z 50  -v circle -c green
n -t * -s 11  -x 268.66302605190458 -y 335.583083487853 -Z 0 -z 50  -v circle -c green
n -t * -s 12  -x 181.10522543131617 -y 668.41905930471569 -Z 0 -z 50  -v circle -c green
n -t * -s 13  -x 648.91216794443881 -y 213.44531374678263 -Z 0 -z 50  -v circle -c green
n -t * -s 14  -x 219.23517771960942 -y 548.50554678053857 -Z 0 -z 50  -v circle -c green
n -t * -s 15  -x 415.90592563892994 -y 104.7137707959459 -Z 0 -z 50  -v circle -c green
n -t * -s 16  -x 905.43220932848385 -y 479.31374706295958 -Z 0 -z 50  -v circle -c green
n -t * -s 17  -x 782.68360895229671 -y 450.73252900072032 -Z 0 -z 50  -v circle -c green
n -t * -s 18  -x 327.01864388166865 -y 161.8781753638192 -Z 0 -z 50  -v circle -c green
n -t * -s 19  -x 858.11667463654499 -y 293.56049312910091 -Z 0 -z 50  -v circle -c green
n -t * -s 20  -x 339.01002599811648 -y 593.20556027498355 -Z 0 -z 50  -v circle -c green
n -t * -s 21  -x 507.31442706068719 -y 346.86048717557475 -Z 0 -z 50  -v circle -c green
n -t * -s 22  -x 105.25994985609313 -y 83.181785085788832 -Z 0 -z 50  -v circle -c green
n -t * -s 23  -x 545.32742106603803 -y 254.37268552108327 -Z 0 -z 50  -v circle -c green
n -t * -s 24  -x 52.15694105818725 -y 481.36669196252092 -Z 0 -z 50  -v circle -c green
V -t * -v 1.0a5 -a 0
W -t * -x 1000 -y 800
A -t * -n 1 -p 0 -o 0x7fffffff -c 30 -a 1
A -t * -h 1 -m 1073741823 -s 0
c -t * -i 0 -n red
v -t 0.01 -e sim_annotation 0.01 1 Network Deployment
n -t 0.100000 -s 0 -x 322.451380 -y 352.271781 -U 38.261976 -V -11.662813 -T 15.421012
n -t 0.100000 -s 1 -x 789.784982 -y 732.957165 -U -22.160649 -V -33.300235 -T 21.382210
n -t 0.100000 -s 2 -x 513.838345 -y 64.850974 -U 7.229060 -V 39.341336 -T 11.725025
n -t 0.100000 -s 3 -x 437.910226 -y 765.733522 -U -7.424079 -V -39.305000 -T 16.491969
n -t 0.100000 -s 4 -x 104.125869 -y 34.784808 -U 29.117795 -V 27.425426 -T 26.580239
n -t 0.100000 -s 5 -x 785.327791 -y 3.348503 -U -15.771742 -V 36.759382 -T 10.104797
n -t 0.100000 -s 6 -x 347.867934 -y 493.096016 -U 38.655626 -V -10.283120 -T 15.979733
n -t 0.100000 -s 7 -x 330.922610 -y 653.042527 -U -19.009595 -V -35.194251 -T 9.973383
n -t 0.100000 -s 8 -x 607.185902 -y 778.762466 -U -22.764421 -V -32.890441 -T 8.440495
n -t 0.100000 -s 9 -x 825.967044 -y 22.480853 -U -28.332361 -V 28.236099 -T 9.619558
n -t 0.100000 -s 10 -x 294.610797 -y 418.933476 -U 37.457973 -V 14.032116 -T 9.919963
n -t 0.100000 -s 11 -x 268.663026 -y 335.583083 -U 39.643042 -V -5.331904 -T 9.522919
n -t 0.100000 -s 12 -x 181.105225 -y 668.419059 -U 38.734950 -V 9.980161 -T 7.087494
n -t 0.100000 -s 13 -x 648.912168 -y 213.445314 -U 7.666036 -V -39.258526 -T 5.205903
n -t 0.100000 -s 14 -x 219.235178 -y 548.505547 -U 32.122293 -V 23.836071 -T 9.776797
n -t 0.100000 -s 15 -x 415.905926 -y 104.713771 -U -9.147262 -V 38.940051 -T 12.205217
n -t 0.100000 -s 16 -x 905.432209 -y 479.313747 -U -39.903378 -V -2.778562 -T 3.368361
n -t 0.100000 -s 17 -x 782.683609 -y 450.732529 -U -33.320377 -V -22.130352 -T 18.759334
n -t 0.100000 -s 18 -x 327.018644 -y 161.878175 -U 15.473859 -V 36.885765 -T 13.152681
n -t 0.100000 -s 19 -x 858.116675 -y 293.560493 -U -39.980212 -V 1.258021 -T 16.871816
n -t 0.100000 -s 20 -x 339.010026 -y 593.205560 -U -15.556032 -V -36.851186 -T 5.615825
n -t 0.100000 -s 21 -x 507.314427 -y 346.860487 -U 39.908706 -V 2.700957 -T 6.094741
n -t 0.100000 -s 22 -x 105.259950 -y 83.181785 -U 35.241751 -V 18.921390 -T 23.789245
n -t 0.100000 -s 23 -x 545.327421 -y 254.372686 -U -36.488019 -V -16.389767 -T 11.626890
n -t 0.100000 -s 24 -x 52.156941 -y 481.366692 -U 39.747608 -V -4.486386 -T 13.344936
+ -t 1.000000000 -s 4 -d -1 -p cbr -e 1000 -c 2 -a 0 -i 0 -k AGT 
- -t 1.000000000 -s 4 -d -1 -p cbr -e 1000 -c 2 -a 0 -i 0 -k AGT
h -t 1.000000000 -s 4 -d -1 -p cbr -e 1000 -c 2 -a 0 -i 0 -k AGT
m -t 1 -s 4 -n m -c blue -h square
m -t 1 -s 20 -n m -c magenta -h square
n -t 1 -s 4 -S DLABEL -l "SENDER" -L ""
n -t 1 -s 20 -S DLABEL -l "RCV" -L ""
+ -t 1.000000000 -s 4 -d -1 -p AODV -e 48 -c 2 -a 0 -i 0 -k RTR 
- -t 1.000000000 -s 4 -d -1 -p AODV -e 48 -c 2 -a 0 -i 0 -k RTR
h -t 1.000000000 -s 4 -d -1 -p AODV -e 48 -c 2 -a 0 -i 0 -k RTR
r -t 1.001408138 -s 22 -d -1 -p AODV -e 48 -c 2 -a 0 -i 0 -k RTR
+ -t 1.001550184 -s 22 -d -1 -p AODV -e 48 -c 2 -a 0 -i 0 -k RTR 
- -t 1.001550184 -s 22 -d -1 -p AODV -e 48 -c 2 -a 0 -i 0 -k RTR
h -t 1.001550184 -s 22 -d -1 -p AODV -e 48 -c 2 -a 0 -i 0 -k RTR
r -t 1.002798322 -s 4 -d -1 -p AODV -e 48 -c 2 -a 0 -i 0 -k RTR
r -t 1.002798934 -s 18 -d -1 -p AODV -e 48 -c 2 -a 0 -i 0 -k RTR
+ -t 1.010790488 -s 18 -d -1 -p AODV -e 48 -c 2 -a 0 -i 0 -k RTR 
- -t 1.010790488 -s 18 -d -1 -p AODV -e 48 -c 2 -a 0 -i 0 -k RTR
h -t 1.010790488 -s 18 -d -1 -p AODV -e 48 -c 2 -a 0 -i 0 -k RTR
r -t 1.011898777 -s 15 -d -1 -p AODV -e 48 -c 2 -a 0 -i 0 -k RTR
r -t 1.011898955 -s 11 -d -1 -p AODV -e 48 -c 2 -a 0 -i 0 -k RTR
r -t 1.011898979 -s 0 -d -1 -p AODV -e 48 -c 2 -a 0 -i 0 -k RTR
r -t 1.011899077 -s 23 -d -1 -p AODV -e 48 -c 2 -a 0 -i 0 -k RTR
r -t 1.011899165 -s 2 -d -1 -p AODV -e 48 -c 2 -a 0 -i 0 -k RTR
r -t 1.011899238 -s 22 -d -1 -p AODV -e 48 -c 2 -a 0 -i 0 -k RTR
r -t 1.011899277 -s 10 -d -1 -p AODV -e 48 -c 2 -a 0 -i 0 -k RTR
+ -t 1.012327223 -s 10 -d -1 -p AODV -e 48 -c 2 -a 0 -i 0 -k RTR 
- -t 1.012327223 -s 10 -d -1 -p AODV -e 48 -c 2 -a 0 -i 0 -k RTR
h -t 1.012327223 -s 10 -d -1 -p AODV -e 48 -c 2 -a 0 -i 0 -k RTR
r -t 1.013435473 -s 6 -d -1 -p AODV -e 48 -c 2 -a 0 -i 0 -k RTR
r -t 1.013435538 -s 0 -d -1 -p AODV -e 48 -c 2 -a 0 -i 0 -k RTR
r -t 1.013435569 -s 11 -d -1 -p AODV -e 48 -c 2 -a 0 -i 0 -k RTR
r -t 1.013435649 -s 20 -d -1 -p AODV -e 48 -c 2 -a 0 -i 0 -k RTR
+ -t 1.013435649 -s 20 -d 10 -p AODV -e 44 -c 2 -a 0 -i 0 -k RTR 
- -t 1.013435649 -s 20 -d 10 -p AODV -e 44 -c 2 -a 0 -i 0 -k RTR
h -t 1.013435649 -s 20 -d 10 -p AODV -e 44 -c 2 -a 0 -i 0 -k RTR
r -t 1.013435756 -s 14 -d -1 -p AODV -e 48 -c 2 -a 0 -i 0 -k RTR
r -t 1.013435855 -s 7 -d -1 -p AODV -e 48 -c 2 -a 0 -i 0 -k RTR
r -t 1.013435990 -s 21 -d -1 -p AODV -e 48 -c 2 -a 0 -i 0 -k RTR
r -t 1.013436011 -s 18 -d -1 -p AODV -e 48 -c 2 -a 0 -i 0 -k RTR
r -t 1.013436038 -s 24 -d -1 -p AODV -e 48 -c 2 -a 0 -i 0 -k RTR
+ -t 1.013540619 -s 2 -d -1 -p AODV -e 48 -c 2 -a 0 -i 0 -k RTR 
- -t 1.013540619 -s 2 -d -1 -p AODV -e 48 -c 2 -a 0 -i 0 -k RTR
h -t 1.013540619 -s 2 -d -1 -p AODV -e 48 -c 2 -a 0 -i 0 -k RTR
+ -t 1.014244794 -s 15 -d -1 -p AODV -e 48 -c 2 -a 0 -i 0 -k RTR 
- -t 1.014244794 -s 15 -d -1 -p AODV -e 48 -c 2 -a 0 -i 0 -k RTR
h -t 1.014244794 -s 15 -d -1 -p AODV -e 48 -c 2 -a 0 -i 0 -k RTR
+ -t 1.014377378 -s 21 -d -1 -p AODV -e 48 -c 2 -a 0 -i 0 -k RTR 
- -t 1.014377378 -s 21 -d -1 -p AODV -e 48 -c 2 -a 0 -i 0 -k RTR
h -t 1.014377378 -s 21 -d -1 -p AODV -e 48 -c 2 -a 0 -i 0 -k RTR
+ -t 1.014989769 -s 0 -d -1 -p AODV -e 48 -c 2 -a 0 -i 0 -k RTR 
- -t 1.014989769 -s 0 -d -1 -p AODV -e 48 -c 2 -a 0 -i 0 -k RTR
h -t 1.014989769 -s 0 -d -1 -p AODV -e 48 -c 2 -a 0 -i 0 -k RTR
+ -t 1.015183908 -s 7 -d -1 -p AODV -e 48 -c 2 -a 0 -i 0 -k RTR 
- -t 1.015183908 -s 7 -d -1 -p AODV -e 48 -c 2 -a 0 -i 0 -k RTR
h -t 1.015183908 -s 7 -d -1 -p AODV -e 48 -c 2 -a 0 -i 0 -k RTR
+ -t 1.017672324 -s 14 -d -1 -p AODV -e 48 -c 2 -a 0 -i 0 -k RTR 
- -t 1.017672324 -s 14 -d -1 -p AODV -e 48 -c 2 -a 0 -i 0 -k RTR
h -t 1.017672324 -s 14 -d -1 -p AODV -e 48 -c 2 -a 0 -i 0 -k RTR
+ -t 1.017916630 -s 10 -d 18 -p AODV -e 44 -c 2 -a 0 -i 0 -k RTR 
- -t 1.017916630 -s 10 -d 18 -p AODV -e 44 -c 2 -a 0 -i 0 -k RTR
h -t 1.017916630 -s 10 -d 18 -p AODV -e 44 -c 2 -a 0 -i 0 -k RTR
+ -t 1.018287607 -s 11 -d -1 -p AODV -e 48 -c 2 -a 0 -i 0 -k RTR 
- -t 1.018287607 -s 11 -d -1 -p AODV -e 48 -c 2 -a 0 -i 0 -k RTR
h -t 1.018287607 -s 11 -d -1 -p AODV -e 48 -c 2 -a 0 -i 0 -k RTR
r -t 1.019229124 -s 11 -d -1 -p AODV -e 48 -c 2 -a 0 -i 0 -k RTR
r -t 1.019229261 -s 10 -d -1 -p AODV -e 48 -c 2 -a 0 -i 0 -k RTR
r -t 1.019229427 -s 6 -d -1 -p AODV -e 48 -c 2 -a 0 -i 0 -k RTR
r -t 1.019229434 -s 18 -d -1 -p AODV -e 48 -c 2 -a 0 -i 0 -k RTR
r -t 1.019229562 -s 23 -d -1 -p AODV -e 48 -c 2 -a 0 -i 0 -k RTR
r -t 1.019229567 -s 21 -d -1 -p AODV -e 48 -c 2 -a 0 -i 0 -k RTR
r -t 1.019229636 -s 15 -d -1 -p AODV -e 48 -c 2 -a 0 -i 0 -k RTR
r -t 1.019229680 -s 20 -d -1 -p AODV -e 48 -c 2 -a 0 -i 0 -k RTR
r -t 1.020147924 -s 18 -d -1 -p AODV -e 48 -c 2 -a 0 -i 0 -k RTR
r -t 1.020148035 -s 2 -d -1 -p AODV -e 48 -c 2 -a 0 -i 0 -k RTR
r -t 1.020148115 -s 23 -d -1 -p AODV -e 48 -c 2 -a 0 -i 0 -k RTR
r -t 1.020148326 -s 0 -d -1 -p AODV -e 48 -c 2 -a 0 -i 0 -k RTR
r -t 1.020148356 -s 11 -d -1 -p AODV -e 48 -c 2 -a 0 -i 0 -k RTR
r -t 1.020148468 -s 21 -d -1 -p AODV -e 48 -c 2 -a 0 -i 0 -k RTR
+ -t 1.020262312 -s 23 -d -1 -p AODV -e 48 -c 2 -a 0 -i 0 -k RTR 
- -t 1.020262312 -s 23 -d -1 -p AODV -e 48 -c 2 -a 0 -i 0 -k RTR
h -t 1.020262312 -s 23 -d -1 -p AODV -e 48 -c 2 -a 0 -i 0 -k RTR
r -t 1.021066535 -s 0 -d -1 -p AODV -e 48 -c 2 -a 0 -i 0 -k RTR
r -t 1.021066703 -s 10 -d -1 -p AODV -e 48 -c 2 -a 0 -i 0 -k RTR
r -t 1.021066821 -s 18 -d -1 -p AODV -e 48 -c 2 -a 0 -i 0 -k RTR
r -t 1.021066929 -s 6 -d -1 -p AODV -e 48 -c 2 -a 0 -i 0 -k RTR
r -t 1.021067076 -s 15 -d -1 -p AODV -e 48 -c 2 -a 0 -i 0 -k RTR
r -t 1.021067109 -s 23 -d -1 -p AODV -e 48 -c 2 -a 0 -i 0 -k RTR
r -t 1.021067121 -s 20 -d -1 -p AODV -e 48 -c 2 -a 0 -i 0 -k RTR
r -t 1.021067155 -s 21 -d -1 -p AODV -e 48 -c 2 -a 0 -i 0 -k RTR
r -t 1.021067177 -s 14 -d -1 -p AODV -e 48 -c 2 -a 0 -i 0 -k RTR
+ -t 1.021506324 -s 24 -d -1 -p AODV -e 48 -c 2 -a 0 -i 0 -k RTR 
- -t 1.021506324 -s 24 -d -1 -p AODV -e 48 -c 2 -a 0 -i 0 -k RTR
h -t 1.021506324 -s 24 -d -1 -p AODV -e 48 -c 2 -a 0 -i 0 -k RTR
+ -t 1.022032750 -s 6 -d -1 -p AODV -e 48 -c 2 -a 0 -i 0 -k RTR 
- -t 1.022032750 -s 6 -d -1 -p AODV -e 48 -c 2 -a 0 -i 0 -k RTR
h -t 1.022032750 -s 6 -d -1 -p AODV -e 48 -c 2 -a 0 -i 0 -k RTR
r -t 1.022105491 -s 21 -d -1 -p AODV -e 48 -c 2 -a 0 -i 0 -k RTR
r -t 1.022105571 -s 2 -d -1 -p AODV -e 48 -c 2 -a 0 -i 0 -k RTR
r -t 1.022105588 -s 15 -d -1 -p AODV -e 48 -c 2 -a 0 -i 0 -k RTR
r -t 1.022105632 -s 13 -d -1 -p AODV -e 48 -c 2 -a 0 -i 0 -k RTR
r -t 1.022105695 -s 18 -d -1 -p AODV -e 48 -c 2 -a 0 -i 0 -k RTR
r -t 1.022105725 -s 0 -d -1 -p AODV -e 48 -c 2 -a 0 -i 0 -k RTR
r -t 1.022105862 -s 11 -d -1 -p AODV -e 48 -c 2 -a 0 -i 0 -k RTR
r -t 1.023203970 -s 15 -d -1 -p AODV -e 48 -c 2 -a 0 -i 0 -k RTR
r -t 1.023204032 -s 23 -d -1 -p AODV -e 48 -c 2 -a 0 -i 0 -k RTR
r -t 1.023204089 -s 13 -d -1 -p AODV -e 48 -c 2 -a 0 -i 0 -k RTR
r -t 1.023204246 -s 18 -d -1 -p AODV -e 48 -c 2 -a 0 -i 0 -k RTR
r -t 1.023204402 -s 21 -d -1 -p AODV -e 48 -c 2 -a 0 -i 0 -k RTR
r -t 1.023649519 -s 12 -d -1 -p AODV -e 48 -c 2 -a 0 -i 0 -k RTR
+ -t 1.024769832 -s 12 -d -1 -p AODV -e 48 -c 2 -a 0 -i 0 -k RTR 
- -t 1.024769832 -s 12 -d -1 -p AODV -e 48 -c 2 -a 0 -i 0 -k RTR
h -t 1.024769832 -s 12 -d -1 -p AODV -e 48 -c 2 -a 0 -i 0 -k RTR
r -t 1.024932686 -s 23 -d -1 -p AODV -e 48 -c 2 -a 0 -i 0 -k RTR
r -t 1.024932925 -s 0 -d -1 -p AODV -e 48 -c 2 -a 0 -i 0 -k RTR
r -t 1.024932987 -s 13 -d -1 -p AODV -e 48 -c 2 -a 0 -i 0 -k RTR
r -t 1.024933001 -s 6 -d -1 -p AODV -e 48 -c 2 -a 0 -i 0 -k RTR
r -t 1.024933046 -s 17 -d -1 -p AODV -e 48 -c 2 -a 0 -i 0 -k RTR
r -t 1.024933071 -s 10 -d -1 -p AODV -e 48 -c 2 -a 0 -i 0 -k RTR
r -t 1.024933102 -s 11 -d -1 -p AODV -e 48 -c 2 -a 0 -i 0 -k RTR
r -t 1.024933134 -s 2 -d -1 -p AODV -e 48 -c 2 -a 0 -i 0 -k RTR
r -t 1.024933135 -s 15 -d -1 -p AODV -e 48 -c 2 -a 0 -i 0 -k RTR
r -t 1.026689909 -s 20 -d -1 -p AODV -e 48 -c 2 -a 0 -i 0 -k RTR
r -t 1.026689973 -s 14 -d -1 -p AODV -e 48 -c 2 -a 0 -i 0 -k RTR
r -t 1.026690075 -s 12 -d -1 -p AODV -e 48 -c 2 -a 0 -i 0 -k RTR
r -t 1.026690214 -s 6 -d -1 -p AODV -e 48 -c 2 -a 0 -i 0 -k RTR
r -t 1.026690236 -s 3 -d -1 -p AODV -e 48 -c 2 -a 0 -i 0 -k RTR
r -t 1.026690332 -s 10 -d -1 -p AODV -e 48 -c 2 -a 0 -i 0 -k RTR
r -t 1.027648464 -s 10 -d -1 -p AODV -e 48 -c 2 -a 0 -i 0 -k RTR
r -t 1.027648696 -s 0 -d -1 -p AODV -e 48 -c 2 -a 0 -i 0 -k RTR
r -t 1.027648787 -s 11 -d -1 -p AODV -e 48 -c 2 -a 0 -i 0 -k RTR
r -t 1.027648912 -s 21 -d -1 -p AODV -e 48 -c 2 -a 0 -i 0 -k RTR
r -t 1.029051004 -s 20 -d -1 -p AODV -e 48 -c 2 -a 0 -i 0 -k RTR
r -t 1.029051020 -s 7 -d -1 -p AODV -e 48 -c 2 -a 0 -i 0 -k RTR
r -t 1.029051121 -s 12 -d -1 -p AODV -e 48 -c 2 -a 0 -i 0 -k RTR
r -t 1.029051283 -s 10 -d -1 -p AODV -e 48 -c 2 -a 0 -i 0 -k RTR
r -t 1.029051284 -s 6 -d -1 -p AODV -e 48 -c 2 -a 0 -i 0 -k RTR
r -t 1.029051367 -s 24 -d -1 -p AODV -e 48 -c 2 -a 0 -i 0 -k RTR
r -t 1.029051554 -s 3 -d -1 -p AODV -e 48 -c 2 -a 0 -i 0 -k RTR
r -t 1.029051571 -s 11 -d -1 -p AODV -e 48 -c 2 -a 0 -i 0 -k RTR
+ -t 1.029260173 -s 3 -d -1 -p AODV -e 48 -c 2 -a 0 -i 0 -k RTR 
- -t 1.029260173 -s 3 -d -1 -p AODV -e 48 -c 2 -a 0 -i 0 -k RTR
h -t 1.029260173 -s 3 -d -1 -p AODV -e 48 -c 2 -a 0 -i 0 -k RTR
+ -t 1.030883320 -s 17 -d -1 -p AODV -e 48 -c 2 -a 0 -i 0 -k RTR 
- -t 1.030883320 -s 17 -d -1 -p AODV -e 48 -c 2 -a 0 -i 0 -k RTR
h -t 1.030883320 -s 17 -d -1 -p AODV -e 48 -c 2 -a 0 -i 0 -k RTR
+ -t 1.030980068 -s 13 -d -1 -p AODV -e 48 -c 2 -a 0 -i 0 -k RTR 
- -t 1.030980068 -s 13 -d -1 -p AODV -e 48 -c 2 -a 0 -i 0 -k RTR
h -t 1.030980068 -s 13 -d -1 -p AODV -e 48 -c 2 -a 0 -i 0 -k RTR
+ -t 1.032850756 -s 18 -d 22 -p AODV -e 44 -c 2 -a 0 -i 0 -k RTR 
- -t 1.032850756 -s 18 -d 22 -p AODV -e 44 -c 2 -a 0 -i 0 -k RTR
h -t 1.032850756 -s 18 -d 22 -p AODV -e 44 -c 2 -a 0 -i 0 -k RTR
r -t 1.035547077 -s 8 -d -1 -p AODV -e 48 -c 2 -a 0 -i 0 -k RTR
r -t 1.035547290 -s 12 -d -1 -p AODV -e 48 -c 2 -a 0 -i 0 -k RTR
r -t 1.036830437 -s 16 -d -1 -p AODV -e 48 -c 2 -a 0 -i 0 -k RTR
r -t 1.036830525 -s 19 -d -1 -p AODV -e 48 -c 2 -a 0 -i 0 -k RTR
r -t 1.036830758 -s 21 -d -1 -p AODV -e 48 -c 2 -a 0 -i 0 -k RTR
+ -t 1.037744006 -s 16 -d -1 -p AODV -e 48 -c 2 -a 0 -i 0 -k RTR 
- -t 1.037744006 -s 16 -d -1 -p AODV -e 48 -c 2 -a 0 -i 0 -k RTR
h -t 1.037744006 -s 16 -d -1 -p AODV -e 48 -c 2 -a 0 -i 0 -k RTR
r -t 1.039152425 -s 17 -d -1 -p AODV -e 48 -c 2 -a 0 -i 0 -k RTR
r -t 1.039152633 -s 19 -d -1 -p AODV -e 48 -c 2 -a 0 -i 0 -k RTR
r -t 1.039152825 -s 1 -d -1 -p AODV -e 48 -c 2 -a 0 -i 0 -k RTR
+ -t 1.040422996 -s 22 -d 4 -p AODV -e 44 -c 2 -a 0 -i 0 -k RTR 
- -t 1.040422996 -s 22 -d 4 -p AODV -e 44 -c 2 -a 0 -i 0 -k RTR
h -t 1.040422996 -s 22 -d 4 -p AODV -e 44 -c 2 -a 0 -i 0 -k RTR
+ -t 1.041747742 -s 19 -d -1 -p AODV -e 48 -c 2 -a 0 -i 0 -k RTR 
- -t 1.041747742 -s 19 -d -1 -p AODV -e 48 -c 2 -a 0 -i 0 -k RTR
h -t 1.041747742 -s 19 -d -1 -p AODV -e 48 -c 2 -a 0 -i 0 -k RTR
+ -t 1.042496450 -s 8 -d -1 -p AODV -e 48 -c 2 -a 0 -i 0 -k RTR 
- -t 1.042496450 -s 8 -d -1 -p AODV -e 48 -c 2 -a 0 -i 0 -k RTR
h -t 1.042496450 -s 8 -d -1 -p AODV -e 48 -c 2 -a 0 -i 0 -k RTR
r -t 1.043036248 -s 17 -d -1 -p AODV -e 48 -c 2 -a 0 -i 0 -k RTR
r -t 1.043036369 -s 16 -d -1 -p AODV -e 48 -c 2 -a 0 -i 0 -k RTR
r -t 1.043036564 -s 9 -d -1 -p AODV -e 48 -c 2 -a 0 -i 0 -k RTR
+ -t 1.043365026 -s 1 -d -1 -p AODV -e 48 -c 2 -a 0 -i 0 -k RTR 
- -t 1.043365026 -s 1 -d -1 -p AODV -e 48 -c 2 -a 0 -i 0 -k RTR
h -t 1.043365026 -s 1 -d -1 -p AODV -e 48 -c 2 -a 0 -i 0 -k RTR
r -t 1.044433656 -s 8 -d -1 -p AODV -e 48 -c 2 -a 0 -i 0 -k RTR
r -t 1.044433845 -s 16 -d -1 -p AODV -e 48 -c 2 -a 0 -i 0 -k RTR
+ -t 1.045050952 -s 4 -d 22 -p cbr -e 1020 -c 2 -a 0 -i 0 -k RTR 
- -t 1.045050952 -s 4 -d 22 -p cbr -e 1020 -c 2 -a 0 -i 0 -k RTR
h -t 1.045050952 -s 4 -d 22 -p cbr -e 1020 -c 2 -a 0 -i 0 -k RTR
r -t 1.045812175 -s 3 -d -1 -p AODV -e 48 -c 2 -a 0 -i 0 -k RTR
r -t 1.045812285 -s 1 -d -1 -p AODV -e 48 -c 2 -a 0 -i 0 -k RTR
+ -t 1.050394969 -s 9 -d -1 -p AODV -e 48 -c 2 -a 0 -i 0 -k RTR 
- -t 1.050394969 -s 9 -d -1 -p AODV -e 48 -c 2 -a 0 -i 0 -k RTR
h -t 1.050394969 -s 9 -d -1 -p AODV -e 48 -c 2 -a 0 -i 0 -k RTR
r -t 1.051643071 -s 5 -d -1 -p AODV -e 48 -c 2 -a 0 -i 0 -k RTR
r -t 1.051643790 -s 19 -d -1 -p AODV -e 48 -c 2 -a 0 -i 0 -k RTR
+ -t 1.055175362 -s 22 -d 18 -p cbr -e 1020 -c 2 -a 0 -i 0 -k RTR 
- -t 1.055175362 -s 22 -d 18 -p cbr -e 1020 -c 2 -a 0 -i 0 -k RTR
h -t 1.055175362 -s 22 -d 18 -p cbr -e 1020 -c 2 -a 0 -i 0 -k RTR
+ -t 1.055706847 -s 5 -d -1 -p AODV -e 48 -c 2 -a 0 -i 0 -k RTR 
- -t 1.055706847 -s 5 -d -1 -p AODV -e 48 -c 2 -a 0 -i 0 -k RTR
h -t 1.055706847 -s 5 -d -1 -p AODV -e 48 -c 2 -a 0 -i 0 -k RTR
r -t 1.057969735 -s 9 -d -1 -p AODV -e 48 -c 2 -a 0 -i 0 -k RTR
+ -t 1.065181605 -s 18 -d 10 -p cbr -e 1020 -c 2 -a 0 -i 0 -k RTR 
- -t 1.065181605 -s 18 -d 10 -p cbr -e 1020 -c 2 -a 0 -i 0 -k RTR
h -t 1.065181605 -s 18 -d 10 -p cbr -e 1020 -c 2 -a 0 -i 0 -k RTR
+ -t 1.075027958 -s 10 -d 20 -p cbr -e 1020 -c 2 -a 0 -i 0 -k RTR 
- -t 1.075027958 -s 10 -d 20 -p cbr -e 1020 -c 2 -a 0 -i 0 -k RTR
h -t 1.075027958 -s 10 -d 20 -p cbr -e 1020 -c 2 -a 0 -i 0 -k RTR
r -t 1.085133206 -s 20 -d 20 -p cbr -e 1020 -c 2 -a 0 -i 0 -k AGT
r -t 1.086771405 -s 2 -d -1 -p AODV -e 48 -c 2 -a 0 -i 0 -k RTR
r -t 1.086771429 -s 23 -d -1 -p AODV -e 48 -c 2 -a 0 -i 0 -k RTR
r -t 1.086771483 -s 5 -d -1 -p AODV -e 48 -c 2 -a 0 -i 0 -k RTR
r -t 1.086771523 -s 9 -d -1 -p AODV -e 48 -c 2 -a 0 -i 0 -k RTR
r -t 1.086771568 -s 19 -d -1 -p AODV -e 48 -c 2 -a 0 -i 0 -k RTR
r -t 1.086771583 -s 21 -d -1 -p AODV -e 48 -c 2 -a 0 -i 0 -k RTR
+ -t 1.100000000 -s 4 -d -1 -p cbr -e 1000 -c 2 -a 0 -i 1 -k AGT 
- -t 1.100000000 -s 4 -d -1 -p cbr -e 1000 -c 2 -a 0 -i 1 -k AGT
h -t 1.100000000 -s 4 -d -1 -p cbr -e 1000 -c 2 -a 0 -i 1 -k AGT
+ -t 1.100000000 -s 4 -d 22 -p cbr -e 1020 -c 2 -a 0 -i 1 -k RTR 
- -t 1.100000000 -s 4 -d 22 -p cbr -e 1020 -c 2 -a 0 -i 1 -k RTR
h -t 1.100000000 -s 4 -d 22 -p cbr -e 1020 -c 2 -a 0 -i 1 -k RTR
+ -t 1.109620405 -s 22 -d 18 -p cbr -e 1020 -c 2 -a 0 -i 1 -k RTR 
- -t 1.109620405 -s 22 -d 18 -p cbr -e 1020 -c 2 -a 0 -i 1 -k RTR
h -t 1.109620405 -s 22 -d 18 -p cbr -e 1020 -c 2 -a 0 -i 1 -k RTR
+ -t 1.119286644 -s 18 -d 10 -p cbr -e 1020 -c 2 -a 0 -i 1 -k RTR 
- -t 1.119286644 -s 18 -d 10 -p cbr -e 1020 -c 2 -a 0 -i 1 -k RTR
h -t 1.119286644 -s 18 -d 10 -p cbr -e 1020 -c 2 -a 0 -i 1 -k RTR
+ -t 1.129312983 -s 10 -d 20 -p cbr -e 1020 -c 2 -a 0 -i 1 -k RTR 
- -t 1.129312983 -s 10 -d 20 -p cbr -e 1020 -c 2 -a 0 -i 1 -k RTR
h -t 1.129312983 -s 10 -d 20 -p cbr -e 1020 -c 2 -a 0 -i 1 -k RTR
r -t 1.139398206 -s 20 -d 20 -p cbr -e 1020 -c 2 -a 0 -i 1 -k AGT
+ -t 1.200000000 -s 4 -d -1 -p cbr -e 1000 -c 2 -a 0 -i 2 -k AGT 
- -t 1.200000000 -s 4 -d -1 -p cbr -e 1000 -c 2 -a 0 -i 2 -k AGT
h -t 1.200000000 -s 4 -d -1 -p cbr -e 1000 -c 2 -a 0 -i 2 -k AGT
+ -t 1.200000000 -s 4 -d 22 -p cbr -e 1020 -c 2 -a 0 -i 2 -k RTR 
- -t 1.200000000 -s 4 -d 22 -p cbr -e 1020 -c 2 -a 0 -i 2 -k RTR
h -t 1.200000000 -s 4 -d 22 -p cbr -e 1020 -c 2 -a 0 -i 2 -k RTR
+ -t 1.209560398 -s 22 -d 18 -p cbr -e 1020 -c 2 -a 0 -i 2 -k RTR 
- -t 1.209560398 -s 22 -d 18 -p cbr -e 1020 -c 2 -a 0 -i 2 -k RTR
h -t 1.209560398 -s 22 -d 18 -p cbr -e 1020 -c 2 -a 0 -i 2 -k RTR
+ -t 1.219246627 -s 18 -d 10 -p cbr -e 1020 -c 2 -a 0 -i 2 -k RTR 
- -t 1.219246627 -s 18 -d 10 -p cbr -e 1020 -c 2 -a 0 -i 2 -k RTR
h -t 1.219246627 -s 18 -d 10 -p cbr -e 1020 -c 2 -a 0 -i 2 -k RTR
+ -t 1.229012942 -s 10 -d 20 -p cbr -e 1020 -c 2 -a 0 -i 2 -k RTR 
- -t 1.229012942 -s 10 -d 20 -p cbr -e 1020 -c 2 -a 0 -i 2 -k RTR
h -t 1.229012942 -s 10 -d 20 -p cbr -e 1020 -c 2 -a 0 -i 2 -k RTR
r -t 1.238738121 -s 20 -d 20 -p cbr -e 1020 -c 2 -a 0 -i 2 -k AGT
+ -t 1.300000000 -s 4 -d -1 -p cbr -e 1000 -c 2 -a 0 -i 3 -k AGT 
- -t 1.300000000 -s 4 -d -1 -p cbr -e 1000 -c 2 -a 0 -i 3 -k AGT
h -t 1.300000000 -s 4 -d -1 -p cbr -e 1000 -c 2 -a 0 -i 3 -k AGT
+ -t 1.300000000 -s 4 -d 22 -p cbr -e 1020 -c 2 -a 0 -i 3 -k RTR 
- -t 1.300000000 -s 4 -d 22 -p cbr -e 1020 -c 2 -a 0 -i 3 -k RTR
h -t 1.300000000 -s 4 -d 22 -p cbr -e 1020 -c 2 -a 0 -i 3 -k RTR
+ -t 1.309820391 -s 22 -d 18 -p cbr -e 1020 -c 2 -a 0 -i 3 -k RTR 
- -t 1.309820391 -s 22 -d 18 -p cbr -e 1020 -c 2 -a 0 -i 3 -k RTR
h -t 1.309820391 -s 22 -d 18 -p cbr -e 1020 -c 2 -a 0 -i 3 -k RTR
+ -t 1.319506610 -s 18 -d 10 -p cbr -e 1020 -c 2 -a 0 -i 3 -k RTR 
- -t 1.319506610 -s 18 -d 10 -p cbr -e 1020 -c 2 -a 0 -i 3 -k RTR
h -t 1.319506610 -s 18 -d 10 -p cbr -e 1020 -c 2 -a 0 -i 3 -k RTR
+ -t 1.329232902 -s 10 -d 20 -p cbr -e 1020 -c 2 -a 0 -i 3 -k RTR 
- -t 1.329232902 -s 10 -d 20 -p cbr -e 1020 -c 2 -a 0 -i 3 -k RTR
h -t 1.329232902 -s 10 -d 20 -p cbr -e 1020 -c 2 -a 0 -i 3 -k RTR
r -t 1.338918038 -s 20 -d 20 -p cbr -e 1020 -c 2 -a 0 -i 3 -k AGT
+ -t 1.400000000 -s 4 -d -1 -p cbr -e 1000 -c 2 -a 0 -i 4 -k AGT 
- -t 1.400000000 -s 4 -d -1 -p cbr -e 1000 -c 2 -a 0 -i 4 -k AGT
h -t 1.400000000 -s 4 -d -1 -p cbr -e 1000 -c 2 -a 0 -i 4 -k AGT
+ -t 1.400000000 -s 4 -d 22 -p cbr -e 1020 -c 2 -a 0 -i 4 -k RTR 
- -t 1.400000000 -s 4 -d 22 -p cbr -e 1020 -c 2 -a 0 -i 4 -k RTR
h -t 1.400000000 -s 4 -d 22 -p cbr -e 1020 -c 2 -a 0 -i 4 -k RTR
+ -t 1.409840384 -s 22 -d 18 -p cbr -e 1020 -c 2 -a 0 -i 4 -k RTR 
- -t 1.409840384 -s 22 -d 18 -p cbr -e 1020 -c 2 -a 0 -i 4 -k RTR
h -t 1.409840384 -s 22 -d 18 -p cbr -e 1020 -c 2 -a 0 -i 4 -k RTR
+ -t 1.419886594 -s 18 -d 10 -p cbr -e 1020 -c 2 -a 0 -i 4 -k RTR 
- -t 1.419886594 -s 18 -d 10 -p cbr -e 1020 -c 2 -a 0 -i 4 -k RTR
h -t 1.419886594 -s 18 -d 10 -p cbr -e 1020 -c 2 -a 0 -i 4 -k RTR
+ -t 1.429872862 -s 10 -d 20 -p cbr -e 1020 -c 2 -a 0 -i 4 -k RTR 
- -t 1.429872862 -s 10 -d 20 -p cbr -e 1020 -c 2 -a 0 -i 4 -k RTR
h -t 1.429872862 -s 10 -d 20 -p cbr -e 1020 -c 2 -a 0 -i 4 -k RTR
r -t 1.440077960 -s 20 -d 20 -p cbr -e 1020 -c 2 -a 0 -i 4 -k AGT
+ -t 1.500000000 -s 4 -d -1 -p cbr -e 1000 -c 2 -a 0 -i 5 -k AGT 
- -t 1.500000000 -s 4 -d -1 -p cbr -e 1000 -c 2 -a 0 -i 5 -k AGT
h -t 1.500000000 -s 4 -d -1 -p cbr -e 1000 -c 2 -a 0 -i 5 -k AGT
+ -t 1.500000000 -s 4 -d 22 -p cbr -e 1020 -c 2 -a 0 -i 5 -k RTR 
- -t 1.500000000 -s 4 -d 22 -p cbr -e 1020 -c 2 -a 0 -i 5 -k RTR
h -t 1.500000000 -s 4 -d 22 -p cbr -e 1020 -c 2 -a 0 -i 5 -k RTR
+ -t 1.509640378 -s 22 -d 18 -p cbr -e 1020 -c 2 -a 0 -i 5 -k RTR 
- -t 1.509640378 -s 22 -d 18 -p cbr -e 1020 -c 2 -a 0 -i 5 -k RTR
h -t 1.509640378 -s 22 -d 18 -p cbr -e 1020 -c 2 -a 0 -i 5 -k RTR
+ -t 1.519306578 -s 18 -d 10 -p cbr -e 1020 -c 2 -a 0 -i 5 -k RTR 
- -t 1.519306578 -s 18 -d 10 -p cbr -e 1020 -c 2 -a 0 -i 5 -k RTR
h -t 1.519306578 -s 18 -d 10 -p cbr -e 1020 -c 2 -a 0 -i 5 -k RTR
+ -t 1.528972824 -s 10 -d 20 -p cbr -e 1020 -c 2 -a 0 -i 5 -k RTR 
- -t 1.528972824 -s 10 -d 20 -p cbr -e 1020 -c 2 -a 0 -i 5 -k RTR
h -t 1.528972824 -s 10 -d 20 -p cbr -e 1020 -c 2 -a 0 -i 5 -k RTR
r -t 1.539197886 -s 20 -d 20 -p cbr -e 1020 -c 2 -a 0 -i 5 -k AGT
+ -t 1.600000000 -s 4 -d -1 -p cbr -e 1000 -c 2 -a 0 -i 6 -k AGT 
- -t 1.600000000 -s 4 -d -1 -p cbr -e 1000 -c 2 -a 0 -i 6 -k AGT
h -t 1.600000000 -s 4 -d -1 -p cbr -e 1000 -c 2 -a 0 -i 6 -k AGT
+ -t 1.600000000 -s 4 -d 22 -p cbr -e 1020 -c 2 -a 0 -i 6 -k RTR 
- -t 1.600000000 -s 4 -d 22 -p cbr -e 1020 -c 2 -a 0 -i 6 -k RTR
h -t 1.600000000 -s 4 -d 22 -p cbr -e 1020 -c 2 -a 0 -i 6 -k RTR
+ -t 1.609620371 -s 22 -d 18 -p cbr -e 1020 -c 2 -a 0 -i 6 -k RTR 
- -t 1.609620371 -s 22 -d 18 -p cbr -e 1020 -c 2 -a 0 -i 6 -k RTR
h -t 1.609620371 -s 22 -d 18 -p cbr -e 1020 -c 2 -a 0 -i 6 -k RTR
+ -t 1.619806562 -s 18 -d 10 -p cbr -e 1020 -c 2 -a 0 -i 6 -k RTR 
- -t 1.619806562 -s 18 -d 10 -p cbr -e 1020 -c 2 -a 0 -i 6 -k RTR
h -t 1.619806562 -s 18 -d 10 -p cbr -e 1020 -c 2 -a 0 -i 6 -k RTR
+ -t 1.629712785 -s 10 -d 20 -p cbr -e 1020 -c 2 -a 0 -i 6 -k RTR 
- -t 1.629712785 -s 10 -d 20 -p cbr -e 1020 -c 2 -a 0 -i 6 -k RTR
h -t 1.629712785 -s 10 -d 20 -p cbr -e 1020 -c 2 -a 0 -i 6 -k RTR
r -t 1.639477817 -s 20 -d 20 -p cbr -e 1020 -c 2 -a 0 -i 6 -k AGT
+ -t 1.700000000 -s 4 -d -1 -p cbr -e 1000 -c 2 -a 0 -i 7 -k AGT 
- -t 1.700000000 -s 4 -d -1 -p cbr -e 1000 -c 2 -a 0 -i 7 -k AGT
h -t 1.700000000 -s 4 -d -1 -p cbr -e 1000 -c 2 -a 0 -i 7 -k AGT
+ -t 1.700000000 -s 4 -d 22 -p cbr -e 1020 -c 2 -a 0 -i 7 -k RTR 
- -t 1.700000000 -s 4 -d 22 -p cbr -e 1020 -c 2 -a 0 -i 7 -k RTR
h -t 1.700000000 -s 4 -d 22 -p cbr -e 1020 -c 2 -a 0 -i 7 -k RTR
+ -t 1.709780365 -s 22 -d 18 -p cbr -e 1020 -c 2 -a 0 -i 7 -k RTR 
- -t 1.709780365 -s 22 -d 18 -p cbr -e 1020 -c 2 -a 0 -i 7 -k RTR
h -t 1.709780365 -s 22 -d 18 -p cbr -e 1020 -c 2 -a 0 -i 7 -k RTR
+ -t 1.719946548 -s 18 -d 10 -p cbr -e 1020 -c 2 -a 0 -i 7 -k RTR 
- -t 1.719946548 -s 18 -d 10 -p cbr -e 1020 -c 2 -a 0 -i 7 -k RTR
h -t 1.719946548 -s 18 -d 10 -p cbr -e 1020 -c 2 -a 0 -i 7 -k RTR
+ -t 1.729612748 -s 10 -d 20 -p cbr -e 1020 -c 2 -a 0 -i 7 -k RTR 
- -t 1.729612748 -s 10 -d 20 -p cbr -e 1020 -c 2 -a 0 -i 7 -k RTR
h -t 1.729612748 -s 10 -d 20 -p cbr -e 1020 -c 2 -a 0 -i 7 -k RTR
r -t 1.739637753 -s 20 -d 20 -p cbr -e 1020 -c 2 -a 0 -i 7 -k AGT
+ -t 1.800000000 -s 4 -d -1 -p cbr -e 1000 -c 2 -a 0 -i 8 -k AGT 
- -t 1.800000000 -s 4 -d -1 -p cbr -e 1000 -c 2 -a 0 -i 8 -k AGT
h -t 1.800000000 -s 4 -d -1 -p cbr -e 1000 -c 2 -a 0 -i 8 -k AGT
+ -t 1.800000000 -s 4 -d 22 -p cbr -e 1020 -c 2 -a 0 -i 8 -k RTR 
- -t 1.800000000 -s 4 -d 22 -p cbr -e 1020 -c 2 -a 0 -i 8 -k RTR
h -t 1.800000000 -s 4 -d 22 -p cbr -e 1020 -c 2 -a 0 -i 8 -k RTR
+ -t 1.810000358 -s 22 -d 18 -p cbr -e 1020 -c 2 -a 0 -i 8 -k RTR 
- -t 1.810000358 -s 22 -d 18 -p cbr -e 1020 -c 2 -a 0 -i 8 -k RTR
h -t 1.810000358 -s 22 -d 18 -p cbr -e 1020 -c 2 -a 0 -i 8 -k RTR
+ -t 1.819806533 -s 18 -d 10 -p cbr -e 1020 -c 2 -a 0 -i 8 -k RTR 
- -t 1.819806533 -s 18 -d 10 -p cbr -e 1020 -c 2 -a 0 -i 8 -k RTR
h -t 1.819806533 -s 18 -d 10 -p cbr -e 1020 -c 2 -a 0 -i 8 -k RTR
+ -t 1.830012711 -s 10 -d 20 -p cbr -e 1020 -c 2 -a 0 -i 8 -k RTR 
- -t 1.830012711 -s 10 -d 20 -p cbr -e 1020 -c 2 -a 0 -i 8 -k RTR
h -t 1.830012711 -s 10 -d 20 -p cbr -e 1020 -c 2 -a 0 -i 8 -k RTR
r -t 1.840157695 -s 20 -d 20 -p cbr -e 1020 -c 2 -a 0 -i 8 -k AGT
+ -t 1.900000000 -s 4 -d -1 -p cbr -e 1000 -c 2 -a 0 -i 9 -k AGT 
- -t 1.900000000 -s 4 -d -1 -p cbr -e 1000 -c 2 -a 0 -i 9 -k AGT
h -t 1.900000000 -s 4 -d -1 -p cbr -e 1000 -c 2 -a 0 -i 9 -k AGT
+ -t 1.900000000 -s 4 -d 22 -p cbr -e 1020 -c 2 -a 0 -i 9 -k RTR 
- -t 1.900000000 -s 4 -d 22 -p cbr -e 1020 -c 2 -a 0 -i 9 -k RTR
h -t 1.900000000 -s 4 -d 22 -p cbr -e 1020 -c 2 -a 0 -i 9 -k RTR
+ -t 1.909480352 -s 22 -d 18 -p cbr -e 1020 -c 2 -a 0 -i 9 -k RTR 
- -t 1.909480352 -s 22 -d 18 -p cbr -e 1020 -c 2 -a 0 -i 9 -k RTR
h -t 1.909480352 -s 22 -d 18 -p cbr -e 1020 -c 2 -a 0 -i 9 -k RTR
+ -t 1.919706519 -s 18 -d 10 -p cbr -e 1020 -c 2 -a 0 -i 9 -k RTR 
- -t 1.919706519 -s 18 -d 10 -p cbr -e 1020 -c 2 -a 0 -i 9 -k RTR
h -t 1.919706519 -s 18 -d 10 -p cbr -e 1020 -c 2 -a 0 -i 9 -k RTR
+ -t 1.929712675 -s 10 -d 20 -p cbr -e 1020 -c 2 -a 0 -i 9 -k RTR 
- -t 1.929712675 -s 10 -d 20 -p cbr -e 1020 -c 2 -a 0 -i 9 -k RTR
h -t 1.929712675 -s 10 -d 20 -p cbr -e 1020 -c 2 -a 0 -i 9 -k RTR
r -t 1.939857642 -s 20 -d 20 -p cbr -e 1020 -c 2 -a 0 -i 9 -k AGT
+ -t 2.000000000 -s 4 -d -1 -p cbr -e 1000 -c 2 -a 0 -i 10 -k AGT 
- -t 2.000000000 -s 4 -d -1 -p cbr -e 1000 -c 2 -a 0 -i 10 -k AGT
h -t 2.000000000 -s 4 -d -1 -p cbr -e 1000 -c 2 -a 0 -i 10 -k AGT
+ -t 2.000000000 -s 4 -d 22 -p cbr -e 1020 -c 2 -a 0 -i 10 -k RTR 
- -t 2.000000000 -s 4 -d 22 -p cbr -e 1020 -c 2 -a 0 -i 10 -k RTR
h -t 2.000000000 -s 4 -d 22 -p cbr -e 1020 -c 2 -a 0 -i 10 -k RTR
+ -t 2.009900347 -s 22 -d 18 -p cbr -e 1020 -c 2 -a 0 -i 10 -k RTR 
- -t 2.009900347 -s 22 -d 18 -p cbr -e 1020 -c 2 -a 0 -i 10 -k RTR
h -t 2.009900347 -s 22 -d 18 -p cbr -e 1020 -c 2 -a 0 -i 10 -k RTR
+ -t 2.019646506 -s 18 -d 10 -p cbr -e 1020 -c 2 -a 0 -i 10 -k RTR 
- -t 2.019646506 -s 18 -d 10 -p cbr -e 1020 -c 2 -a 0 -i 10 -k RTR
h -t 2.019646506 -s 18 -d 10 -p cbr -e 1020 -c 2 -a 0 -i 10 -k RTR
+ -t 2.029312640 -s 10 -d 20 -p cbr -e 1020 -c 2 -a 0 -i 10 -k RTR 
- -t 2.029312640 -s 10 -d 20 -p cbr -e 1020 -c 2 -a 0 -i 10 -k RTR
h -t 2.029312640 -s 10 -d 20 -p cbr -e 1020 -c 2 -a 0 -i 10 -k RTR
r -t 2.039297596 -s 20 -d 20 -p cbr -e 1020 -c 2 -a 0 -i 10 -k AGT
+ -t 2.100000000 -s 4 -d -1 -p cbr -e 1000 -c 2 -a 0 -i 11 -k AGT 
- -t 2.100000000 -s 4 -d -1 -p cbr -e 1000 -c 2 -a 0 -i 11 -k AGT
h -t 2.100000000 -s 4 -d -1 -p cbr -e 1000 -c 2 -a 0 -i 11 -k AGT
+ -t 2.100000000 -s 4 -d 22 -p cbr -e 1020 -c 2 -a 0 -i 11 -k RTR 
- -t 2.100000000 -s 4 -d 22 -p cbr -e 1020 -c 2 -a 0 -i 11 -k RTR
h -t 2.100000000 -s 4 -d 22 -p cbr -e 1020 -c 2 -a 0 -i 11 -k RTR
+ -t 2.109700341 -s 22 -d 18 -p cbr -e 1020 -c 2 -a 0 -i 11 -k RTR 
- -t 2.109700341 -s 22 -d 18 -p cbr -e 1020 -c 2 -a 0 -i 11 -k RTR
h -t 2.109700341 -s 22 -d 18 -p cbr -e 1020 -c 2 -a 0 -i 11 -k RTR
+ -t 2.119766493 -s 18 -d 10 -p cbr -e 1020 -c 2 -a 0 -i 11 -k RTR 
- -t 2.119766493 -s 18 -d 10 -p cbr -e 1020 -c 2 -a 0 -i 11 -k RTR
h -t 2.119766493 -s 18 -d 10 -p cbr -e 1020 -c 2 -a 0 -i 11 -k RTR
+ -t 2.129892605 -s 10 -d 20 -p cbr -e 1020 -c 2 -a 0 -i 11 -k RTR 
- -t 2.129892605 -s 10 -d 20 -p cbr -e 1020 -c 2 -a 0 -i 11 -k RTR
h -t 2.129892605 -s 10 -d 20 -p cbr -e 1020 -c 2 -a 0 -i 11 -k RTR
r -t 2.139557556 -s 20 -d 20 -p cbr -e 1020 -c 2 -a 0 -i 11 -k AGT
+ -t 2.200000000 -s 4 -d -1 -p cbr -e 1000 -c 2 -a 0 -i 12 -k AGT 
- -t 2.200000000 -s 4 -d -1 -p cbr -e 1000 -c 2 -a 0 -i 12 -k AGT
h -t 2.200000000 -s 4 -d -1 -p cbr -e 1000 -c 2 -a 0 -i 12 -k AGT
+ -t 2.200000000 -s 4 -d 22 -p cbr -e 1020 -c 2 -a 0 -i 12 -k RTR 