n -t * -s 0  -x 291.12313375394939 -y 725.20720210168838 -Z 0 -z 100  -v circle -c green
n -t * -s 1  -x 696.8071538474444 -y 190.26777119853895 -Z 0 -z 100  -v circle -c green
n -t * -s 2  -x 288.03816730530843 -y 45.982320255591688 -Z 0 -z 100  -v circle -c green
n -t * -s 3  -x 31.070669661774613 -y 163.79600435672143 -Z 0 -z 100  -v circle -c green
n -t * -s 4  -x 149.30652927109344 -y 315.86996741400566 -Z 0 -z 100  -v circle -c green
n -t * -s 5  -x 33.17790899108067 -y 496.89313047420842 -Z 0 -z 100  -v circle -c green
n -t * -s 6  -x 103.55485002675785 -y 357.09151977537738 -Z 0 -z 100  -v circle -c green
n -t * -s 7  -x 46.466080959172025 -y 764.33814464338968 -Z 0 -z 100  -v circle -c green
n -t * -s 8  -x 788.99627681309187 -y 528.33951810763199 -Z 0 -z 100  -v circle -c green
n -t * -s 9  -x 752.85104371274406 -y 133.99334407131809 -Z 0 -z 100  -v circle -c green
n -t * -s 10  -x 32.667258303923191 -y 30.888251229602957 -Z 0 -z 100  -v circle -c green
n -t * -s 11  -x 923.54801992119667 -y 57.256652441460943 -Z 0 -z 100  -v circle -c green
n -t * -s 12  -x 890.69697954258743 -y 755.30813781326083 -Z 0 -z 100  -v circle -c green
n -t * -s 13  -x 79.84028434373451 -y 700.52717211680817 -Z 0 -z 100  -v circle -c green
n -t * -s 14  -x 200.22720899443476 -y 174.96125557225255 -Z 0 -z 100  -v circle -c green
n -t * -s 15  -x 717.2780035609743 -y 233.12467943556823 -Z 0 -z 100  -v circle -c green
n -t * -s 16  -x 658.10909199440346 -y 671.60731995087463 -Z 0 -z 100  -v circle -c green
n -t * -s 17  -x 630.28301793629453 -y 133.34596424053703 -Z 0 -z 100  -v circle -c green
n -t * -s 18  -x 432.02623838187486 -y 51.990787336598522 -Z 0 -z 100  -v circle -c green
n -t * -s 19  -x 261.45345776409539 -y 198.61171292076435 -Z 0 -z 100  -v circle -c green
n -t * -s 20  -x 583.82382410756497 -y 261.60942067467118 -Z 0 -z 100  -v circle -c green
n -t * -s 21  -x 86.916598997505659 -y 645.82348086211061 -Z 0 -z 100  -v circle -c green
n -t * -s 22  -x 944.05356186630843 -y 566.57142963566423 -Z 0 -z 100  -v circle -c green
n -t * -s 23  -x 957.5223582598951 -y 62.620219244910501 -Z 0 -z 100  -v circle -c green
n -t * -s 24  -x 572.53106151359668 -y 423.64068721590593 -Z 0 -z 100  -v circle -c green
V -t * -v 1.0a5 -a 0
W -t * -x 1000 -y 800
A -t * -n 1 -p 0 -o 0x7fffffff -c 30 -a 1
A -t * -h 1 -m 1073741823 -s 0
c -t * -i 0 -n red
v -t 0.01 -e sim_annotation 0.01 1 Network Deployment
n -t 0.100000 -s 0 -x 291.123134 -y 725.207202 -U -29.673622 -V -26.823053 -T 4.375455
n -t 0.100000 -s 1 -x 696.807154 -y 190.267771 -U -39.899647 -V -2.831636 -T 16.315488
n -t 0.100000 -s 2 -x 288.038167 -y 45.982320 -U 39.814302 -V -3.849854 -T 10.191825
n -t 0.100000 -s 3 -x 31.070670 -y 163.796004 -U 33.329442 -V 22.116697 -T 20.366326
n -t 0.100000 -s 4 -x 149.306529 -y 315.869967 -U 13.249346 -V -37.741951 -T 7.138722
n -t 0.100000 -s 5 -x 33.177909 -y 496.893130 -U 39.174014 -V -8.086816 -T 16.006798
n -t 0.100000 -s 6 -x 103.554850 -y 357.091520 -U 38.032925 -V 12.389374 -T 14.269312
n -t 0.100000 -s 7 -x 46.466081 -y 764.338145 -U 12.872936 -V -37.871988 -T 7.125602
n -t 0.100000 -s 8 -x 788.996277 -y 528.339518 -U -33.166929 -V -22.359670 -T 13.144755
n -t 0.100000 -s 9 -x 752.851044 -y 133.993344 -U -37.718322 -V 13.316463 -T 19.408517
n -t 0.100000 -s 10 -x 32.667258 -y 30.888251 -U 35.251790 -V 18.902681 -T 21.853203
n -t 0.100000 -s 11 -x 923.548020 -y 57.256652 -U -27.400379 -V 29.141367 -T 22.592327
n -t 0.100000 -s 12 -x 890.696980 -y 755.308138 -U -34.290181 -V -20.595715 -T 12.898035
n -t 0.100000 -s 13 -x 79.840284 -y 700.527172 -U 18.255084 -V -35.591458 -T 8.003710
n -t 0.100000 -s 14 -x 200.227209 -y 174.961256 -U 39.652156 -V -5.263702 -T 9.319664
n -t 0.100000 -s 15 -x 717.278004 -y 233.124679 -U -39.989421 -V 0.919917 -T 15.097381
n -t 0.100000 -s 16 -x 658.109092 -y 671.607320 -U -39.117936 -V 8.353868 -T 5.708284
n -t 0.100000 -s 17 -x 630.283018 -y 133.345964 -U -35.751715 -V -17.939199 -T 4.799814
n -t 0.100000 -s 18 -x 432.026238 -y 51.990787 -U 3.423963 -V 39.853187 -T 13.287713
n -t 0.100000 -s 19 -x 261.453458 -y 198.611713 -U 30.589706 -V 25.773434 -T 11.295710
n -t 0.100000 -s 20 -x 583.823824 -y 261.609421 -U 19.845651 -V 34.729672 -T 13.169319
n -t 0.100000 -s 21 -x 86.916599 -y 645.823481 -U 31.250327 -V -24.968321 -T 22.092107
n -t 0.100000 -s 22 -x 944.053562 -y 566.571430 -U -39.821479 -V -3.774887 -T 12.196782
n -t 0.100000 -s 23 -x 957.522358 -y 62.620219 -U -14.830368 -V 37.149161 -T 18.467678
n -t 0.100000 -s 24 -x 572.531062 -y 423.640687 -U 37.134009 -V -14.868268 -T 6.375276
+ -t 1.000000000 -s 4 -d -1 -p cbr -e 1000 -c 2 -a 0 -i 0 -k AGT 
- -t 1.000000000 -s 4 -d -1 -p cbr -e 1000 -c 2 -a 0 -i 0 -k AGT
h -t 1.000000000 -s 4 -d -1 -p cbr -e 1000 -c 2 -a 0 -i 0 -k AGT
m -t 1 -s 4 -n m -c blue -h square
m -t 1 -s 20 -n m -c magenta -h square
n -t 1 -s 4 -S DLABEL -l "SENDER" -L ""
n -t 1 -s 20 -S DLABEL -l "RCV" -L ""
+ -t 1.000000000 -s 4 -d -1 -p AODV -e 48 -c 2 -a 0 -i 0 -k RTR 
- -t 1.000000000 -s 4 -d -1 -p AODV -e 48 -c 2 -a 0 -i 0 -k RTR
h -t 1.000000000 -s 4 -d -1 -p AODV -e 48 -c 2 -a 0 -i 0 -k RTR
r -t 1.001408298 -s 6 -d -1 -p AODV -e 48 -c 2 -a 0 -i 0 -k RTR
r -t 1.001408448 -s 14 -d -1 -p AODV -e 48 -c 2 -a 0 -i 0 -k RTR
r -t 1.001408467 -s 3 -d -1 -p AODV -e 48 -c 2 -a 0 -i 0 -k RTR
r -t 1.001408471 -s 19 -d -1 -p AODV -e 48 -c 2 -a 0 -i 0 -k RTR
r -t 1.001408758 -s 5 -d -1 -p AODV -e 48 -c 2 -a 0 -i 0 -k RTR
+ -t 1.001550345 -s 6 -d -1 -p AODV -e 48 -c 2 -a 0 -i 0 -k RTR 
- -t 1.001550345 -s 6 -d -1 -p AODV -e 48 -c 2 -a 0 -i 0 -k RTR
h -t 1.001550345 -s 6 -d -1 -p AODV -e 48 -c 2 -a 0 -i 0 -k RTR
+ -t 1.002289675 -s 14 -d -1 -p AODV -e 48 -c 2 -a 0 -i 0 -k RTR 
- -t 1.002289675 -s 14 -d -1 -p AODV -e 48 -c 2 -a 0 -i 0 -k RTR
h -t 1.002289675 -s 14 -d -1 -p AODV -e 48 -c 2 -a 0 -i 0 -k RTR
r -t 1.002698643 -s 4 -d -1 -p AODV -e 48 -c 2 -a 0 -i 0 -k RTR
r -t 1.002698811 -s 5 -d -1 -p AODV -e 48 -c 2 -a 0 -i 0 -k RTR
r -t 1.002699011 -s 3 -d -1 -p AODV -e 48 -c 2 -a 0 -i 0 -k RTR
r -t 1.002699046 -s 19 -d -1 -p AODV -e 48 -c 2 -a 0 -i 0 -k RTR
r -t 1.002699082 -s 14 -d -1 -p AODV -e 48 -c 2 -a 0 -i 0 -k RTR
r -t 1.003837329 -s 19 -d -1 -p AODV -e 48 -c 2 -a 0 -i 0 -k RTR
r -t 1.003837529 -s 4 -d -1 -p AODV -e 48 -c 2 -a 0 -i 0 -k RTR
r -t 1.003837599 -s 2 -d -1 -p AODV -e 48 -c 2 -a 0 -i 0 -k RTR
r -t 1.003837666 -s 3 -d -1 -p AODV -e 48 -c 2 -a 0 -i 0 -k RTR
r -t 1.003837784 -s 10 -d -1 -p AODV -e 48 -c 2 -a 0 -i 0 -k RTR
r -t 1.003837800 -s 18 -d -1 -p AODV -e 48 -c 2 -a 0 -i 0 -k RTR
r -t 1.003837818 -s 6 -d -1 -p AODV -e 48 -c 2 -a 0 -i 0 -k RTR
+ -t 1.004265745 -s 18 -d -1 -p AODV -e 48 -c 2 -a 0 -i 0 -k RTR 
- -t 1.004265745 -s 18 -d -1 -p AODV -e 48 -c 2 -a 0 -i 0 -k RTR
h -t 1.004265745 -s 18 -d -1 -p AODV -e 48 -c 2 -a 0 -i 0 -k RTR
+ -t 1.004538376 -s 5 -d -1 -p AODV -e 48 -c 2 -a 0 -i 0 -k RTR 
- -t 1.004538376 -s 5 -d -1 -p AODV -e 48 -c 2 -a 0 -i 0 -k RTR
h -t 1.004538376 -s 5 -d -1 -p AODV -e 48 -c 2 -a 0 -i 0 -k RTR
r -t 1.005374145 -s 2 -d -1 -p AODV -e 48 -c 2 -a 0 -i 0 -k RTR
r -t 1.005374297 -s 17 -d -1 -p AODV -e 48 -c 2 -a 0 -i 0 -k RTR
r -t 1.005374406 -s 19 -d -1 -p AODV -e 48 -c 2 -a 0 -i 0 -k RTR
r -t 1.005374463 -s 14 -d -1 -p AODV -e 48 -c 2 -a 0 -i 0 -k RTR
r -t 1.005374567 -s 1 -d -1 -p AODV -e 48 -c 2 -a 0 -i 0 -k RTR
+ -t 1.005479238 -s 10 -d -1 -p AODV -e 48 -c 2 -a 0 -i 0 -k RTR 
- -t 1.005479238 -s 10 -d -1 -p AODV -e 48 -c 2 -a 0 -i 0 -k RTR
h -t 1.005479238 -s 10 -d -1 -p AODV -e 48 -c 2 -a 0 -i 0 -k RTR
+ -t 1.005820201 -s 3 -d -1 -p AODV -e 48 -c 2 -a 0 -i 0 -k RTR 
- -t 1.005820201 -s 3 -d -1 -p AODV -e 48 -c 2 -a 0 -i 0 -k RTR
h -t 1.005820201 -s 3 -d -1 -p AODV -e 48 -c 2 -a 0 -i 0 -k RTR
r -t 1.006977441 -s 3 -d -1 -p AODV -e 48 -c 2 -a 0 -i 0 -k RTR
r -t 1.006977690 -s 14 -d -1 -p AODV -e 48 -c 2 -a 0 -i 0 -k RTR
+ -t 1.007122620 -s 1 -d -1 -p AODV -e 48 -c 2 -a 0 -i 0 -k RTR 
- -t 1.007122620 -s 1 -d -1 -p AODV -e 48 -c 2 -a 0 -i 0 -k RTR
h -t 1.007122620 -s 1 -d -1 -p AODV -e 48 -c 2 -a 0 -i 0 -k RTR
r -t 1.007995893 -s 10 -d -1 -p AODV -e 48 -c 2 -a 0 -i 0 -k RTR
r -t 1.007995907 -s 4 -d -1 -p AODV -e 48 -c 2 -a 0 -i 0 -k RTR
r -t 1.007996025 -s 14 -d -1 -p AODV -e 48 -c 2 -a 0 -i 0 -k RTR
r -t 1.007996107 -s 6 -d -1 -p AODV -e 48 -c 2 -a 0 -i 0 -k RTR
r -t 1.008290788 -s 15 -d -1 -p AODV -e 48 -c 2 -a 0 -i 0 -k RTR
r -t 1.008290858 -s 9 -d -1 -p AODV -e 48 -c 2 -a 0 -i 0 -k RTR
r -t 1.008291022 -s 20 -d -1 -p AODV -e 48 -c 2 -a 0 -i 0 -k RTR
+ -t 1.008291022 -s 20 -d 1 -p AODV -e 44 -c 2 -a 0 -i 0 -k RTR 
- -t 1.008291022 -s 20 -d 1 -p AODV -e 44 -c 2 -a 0 -i 0 -k RTR
h -t 1.008291022 -s 20 -d 1 -p AODV -e 44 -c 2 -a 0 -i 0 -k RTR
r -t 1.008291383 -s 24 -d -1 -p AODV -e 48 -c 2 -a 0 -i 0 -k RTR
r -t 1.009278925 -s 6 -d -1 -p AODV -e 48 -c 2 -a 0 -i 0 -k RTR
r -t 1.009278931 -s 21 -d -1 -p AODV -e 48 -c 2 -a 0 -i 0 -k RTR
r -t 1.009279062 -s 13 -d -1 -p AODV -e 48 -c 2 -a 0 -i 0 -k RTR
r -t 1.009279219 -s 4 -d -1 -p AODV -e 48 -c 2 -a 0 -i 0 -k RTR
r -t 1.009279262 -s 7 -d -1 -p AODV -e 48 -c 2 -a 0 -i 0 -k RTR
+ -t 1.009400025 -s 19 -d -1 -p AODV -e 48 -c 2 -a 0 -i 0 -k RTR 
- -t 1.009400025 -s 19 -d -1 -p AODV -e 48 -c 2 -a 0 -i 0 -k RTR
h -t 1.009400025 -s 19 -d -1 -p AODV -e 48 -c 2 -a 0 -i 0 -k RTR
+ -t 1.009610864 -s 17 -d -1 -p AODV -e 48 -c 2 -a 0 -i 0 -k RTR 
- -t 1.009610864 -s 17 -d -1 -p AODV -e 48 -c 2 -a 0 -i 0 -k RTR
h -t 1.009610864 -s 17 -d -1 -p AODV -e 48 -c 2 -a 0 -i 0 -k RTR
+ -t 1.011691188 -s 21 -d -1 -p AODV -e 48 -c 2 -a 0 -i 0 -k RTR 
- -t 1.011691188 -s 21 -d -1 -p AODV -e 48 -c 2 -a 0 -i 0 -k RTR
h -t 1.011691188 -s 21 -d -1 -p AODV -e 48 -c 2 -a 0 -i 0 -k RTR
+ -t 1.012200834 -s 2 -d -1 -p AODV -e 48 -c 2 -a 0 -i 0 -k RTR 
- -t 1.012200834 -s 2 -d -1 -p AODV -e 48 -c 2 -a 0 -i 0 -k RTR
h -t 1.012200834 -s 2 -d -1 -p AODV -e 48 -c 2 -a 0 -i 0 -k RTR
r -t 1.012739350 -s 13 -d -1 -p AODV -e 48 -c 2 -a 0 -i 0 -k RTR
r -t 1.012739591 -s 7 -d -1 -p AODV -e 48 -c 2 -a 0 -i 0 -k RTR
r -t 1.012739659 -s 5 -d -1 -p AODV -e 48 -c 2 -a 0 -i 0 -k RTR
r -t 1.012739747 -s 0 -d -1 -p AODV -e 48 -c 2 -a 0 -i 0 -k RTR
+ -t 1.012876839 -s 1 -d 18 -p AODV -e 44 -c 2 -a 0 -i 0 -k RTR 
- -t 1.012876839 -s 1 -d 18 -p AODV -e 44 -c 2 -a 0 -i 0 -k RTR
h -t 1.012876839 -s 1 -d 18 -p AODV -e 44 -c 2 -a 0 -i 0 -k RTR
+ -t 1.012951948 -s 15 -d -1 -p AODV -e 48 -c 2 -a 0 -i 0 -k RTR 
- -t 1.012951948 -s 15 -d -1 -p AODV -e 48 -c 2 -a 0 -i 0 -k RTR
h -t 1.012951948 -s 15 -d -1 -p AODV -e 48 -c 2 -a 0 -i 0 -k RTR
r -t 1.015047469 -s 1 -d -1 -p AODV -e 48 -c 2 -a 0 -i 0 -k RTR
r -t 1.015047568 -s 9 -d -1 -p AODV -e 48 -c 2 -a 0 -i 0 -k RTR
r -t 1.015047632 -s 15 -d -1 -p AODV -e 48 -c 2 -a 0 -i 0 -k RTR
r -t 1.015047704 -s 18 -d -1 -p AODV -e 48 -c 2 -a 0 -i 0 -k RTR
r -t 1.015047742 -s 20 -d -1 -p AODV -e 48 -c 2 -a 0 -i 0 -k RTR
+ -t 1.015213926 -s 9 -d -1 -p AODV -e 48 -c 2 -a 0 -i 0 -k RTR 
- -t 1.015213926 -s 9 -d -1 -p AODV -e 48 -c 2 -a 0 -i 0 -k RTR
h -t 1.015213926 -s 9 -d -1 -p AODV -e 48 -c 2 -a 0 -i 0 -k RTR
+ -t 1.016052751 -s 7 -d -1 -p AODV -e 48 -c 2 -a 0 -i 0 -k RTR 
- -t 1.016052751 -s 7 -d -1 -p AODV -e 48 -c 2 -a 0 -i 0 -k RTR
h -t 1.016052751 -s 7 -d -1 -p AODV -e 48 -c 2 -a 0 -i 0 -k RTR
+ -t 1.016912056 -s 24 -d -1 -p AODV -e 48 -c 2 -a 0 -i 0 -k RTR 
- -t 1.016912056 -s 24 -d -1 -p AODV -e 48 -c 2 -a 0 -i 0 -k RTR
h -t 1.016912056 -s 24 -d -1 -p AODV -e 48 -c 2 -a 0 -i 0 -k RTR
r -t 1.017180993 -s 13 -d -1 -p AODV -e 48 -c 2 -a 0 -i 0 -k RTR
r -t 1.017181155 -s 21 -d -1 -p AODV -e 48 -c 2 -a 0 -i 0 -k RTR
r -t 1.017181444 -s 0 -d -1 -p AODV -e 48 -c 2 -a 0 -i 0 -k RTR
+ -t 1.017790128 -s 13 -d -1 -p AODV -e 48 -c 2 -a 0 -i 0 -k RTR 
- -t 1.017790128 -s 13 -d -1 -p AODV -e 48 -c 2 -a 0 -i 0 -k RTR
h -t 1.017790128 -s 13 -d -1 -p AODV -e 48 -c 2 -a 0 -i 0 -k RTR
r -t 1.018086464 -s 1 -d -1 -p AODV -e 48 -c 2 -a 0 -i 0 -k RTR
r -t 1.018086613 -s 9 -d -1 -p AODV -e 48 -c 2 -a 0 -i 0 -k RTR
r -t 1.018086623 -s 20 -d -1 -p AODV -e 48 -c 2 -a 0 -i 0 -k RTR
r -t 1.018086773 -s 17 -d -1 -p AODV -e 48 -c 2 -a 0 -i 0 -k RTR
r -t 1.018086931 -s 24 -d -1 -p AODV -e 48 -c 2 -a 0 -i 0 -k RTR
r -t 1.019058291 -s 21 -d -1 -p AODV -e 48 -c 2 -a 0 -i 0 -k RTR
r -t 1.019058370 -s 7 -d -1 -p AODV -e 48 -c 2 -a 0 -i 0 -k RTR
r -t 1.019058696 -s 0 -d -1 -p AODV -e 48 -c 2 -a 0 -i 0 -k RTR
r -t 1.019058730 -s 5 -d -1 -p AODV -e 48 -c 2 -a 0 -i 0 -k RTR
r -t 1.019124851 -s 1 -d -1 -p AODV -e 48 -c 2 -a 0 -i 0 -k RTR
r -t 1.019124932 -s 15 -d -1 -p AODV -e 48 -c 2 -a 0 -i 0 -k RTR
r -t 1.019125027 -s 17 -d -1 -p AODV -e 48 -c 2 -a 0 -i 0 -k RTR
r -t 1.019125238 -s 20 -d -1 -p AODV -e 48 -c 2 -a 0 -i 0 -k RTR
r -t 1.019125249 -s 11 -d -1 -p AODV -e 48 -c 2 -a 0 -i 0 -k RTR
r -t 1.019125383 -s 23 -d -1 -p AODV -e 48 -c 2 -a 0 -i 0 -k RTR
+ -t 1.020889309 -s 18 -d 14 -p AODV -e 44 -c 2 -a 0 -i 0 -k RTR 
- -t 1.020889309 -s 18 -d 14 -p AODV -e 44 -c 2 -a 0 -i 0 -k RTR
h -t 1.020889309 -s 18 -d 14 -p AODV -e 44 -c 2 -a 0 -i 0 -k RTR
+ -t 1.020987526 -s 23 -d -1 -p AODV -e 48 -c 2 -a 0 -i 0 -k RTR 
- -t 1.020987526 -s 23 -d -1 -p AODV -e 48 -c 2 -a 0 -i 0 -k RTR
h -t 1.020987526 -s 23 -d -1 -p AODV -e 48 -c 2 -a 0 -i 0 -k RTR
+ -t 1.021653225 -s 0 -d -1 -p AODV -e 48 -c 2 -a 0 -i 0 -k RTR 
- -t 1.021653225 -s 0 -d -1 -p AODV -e 48 -c 2 -a 0 -i 0 -k RTR
h -t 1.021653225 -s 0 -d -1 -p AODV -e 48 -c 2 -a 0 -i 0 -k RTR
+ -t 1.022398419 -s 11 -d -1 -p AODV -e 48 -c 2 -a 0 -i 0 -k RTR 
- -t 1.022398419 -s 11 -d -1 -p AODV -e 48 -c 2 -a 0 -i 0 -k RTR
h -t 1.022398419 -s 11 -d -1 -p AODV -e 48 -c 2 -a 0 -i 0 -k RTR
r -t 1.022621782 -s 21 -d -1 -p AODV -e 48 -c 2 -a 0 -i 0 -k RTR
r -t 1.022621793 -s 13 -d -1 -p AODV -e 48 -c 2 -a 0 -i 0 -k RTR
r -t 1.022621917 -s 7 -d -1 -p AODV -e 48 -c 2 -a 0 -i 0 -k RTR
r -t 1.023420107 -s 18 -d -1 -p AODV -e 48 -c 2 -a 0 -i 0 -k RTR
r -t 1.023420225 -s 14 -d -1 -p AODV -e 48 -c 2 -a 0 -i 0 -k RTR
r -t 1.023420319 -s 19 -d -1 -p AODV -e 48 -c 2 -a 0 -i 0 -k RTR
r -t 1.023565010 -s 23 -d -1 -p AODV -e 48 -c 2 -a 0 -i 0 -k RTR
r -t 1.024498567 -s 14 -d -1 -p AODV -e 48 -c 2 -a 0 -i 0 -k RTR
r -t 1.024498789 -s 4 -d -1 -p AODV -e 48 -c 2 -a 0 -i 0 -k RTR
r -t 1.024498930 -s 2 -d -1 -p AODV -e 48 -c 2 -a 0 -i 0 -k RTR
r -t 1.024498977 -s 18 -d -1 -p AODV -e 48 -c 2 -a 0 -i 0 -k RTR
r -t 1.024499019 -s 6 -d -1 -p AODV -e 48 -c 2 -a 0 -i 0 -k RTR
r -t 1.024499089 -s 3 -d -1 -p AODV -e 48 -c 2 -a 0 -i 0 -k RTR
r -t 1.024643168 -s 11 -d -1 -p AODV -e 48 -c 2 -a 0 -i 0 -k RTR
r -t 1.026284424 -s 20 -d -1 -p AODV -e 48 -c 2 -a 0 -i 0 -k RTR
r -t 1.026284637 -s 8 -d -1 -p AODV -e 48 -c 2 -a 0 -i 0 -k RTR
r -t 1.026284672 -s 15 -d -1 -p AODV -e 48 -c 2 -a 0 -i 0 -k RTR
r -t 1.026284798 -s 1 -d -1 -p AODV -e 48 -c 2 -a 0 -i 0 -k RTR
+ -t 1.027166639 -s 8 -d -1 -p AODV -e 48 -c 2 -a 0 -i 0 -k RTR 
- -t 1.027166639 -s 8 -d -1 -p AODV -e 48 -c 2 -a 0 -i 0 -k RTR
h -t 1.027166639 -s 8 -d -1 -p AODV -e 48 -c 2 -a 0 -i 0 -k RTR
r -t 1.028850512 -s 22 -d -1 -p AODV -e 48 -c 2 -a 0 -i 0 -k RTR
r -t 1.028850714 -s 16 -d -1 -p AODV -e 48 -c 2 -a 0 -i 0 -k RTR
r -t 1.028850815 -s 12 -d -1 -p AODV -e 48 -c 2 -a 0 -i 0 -k RTR
+ -t 1.030819886 -s 14 -d 4 -p AODV -e 44 -c 2 -a 0 -i 0 -k RTR 
- -t 1.030819886 -s 14 -d 4 -p AODV -e 44 -c 2 -a 0 -i 0 -k RTR
h -t 1.030819886 -s 14 -d 4 -p AODV -e 44 -c 2 -a 0 -i 0 -k RTR
+ -t 1.034711637 -s 22 -d -1 -p AODV -e 48 -c 2 -a 0 -i 0 -k RTR 
- -t 1.034711637 -s 22 -d -1 -p AODV -e 48 -c 2 -a 0 -i 0 -k RTR
h -t 1.034711637 -s 22 -d -1 -p AODV -e 48 -c 2 -a 0 -i 0 -k RTR
r -t 1.035960167 -s 8 -d -1 -p AODV -e 48 -c 2 -a 0 -i 0 -k RTR
r -t 1.035960236 -s 12 -d -1 -p AODV -e 48 -c 2 -a 0 -i 0 -k RTR
+ -t 1.036110011 -s 4 -d 14 -p cbr -e 1020 -c 2 -a 0 -i 0 -k RTR 
- -t 1.036110011 -s 4 -d 14 -p cbr -e 1020 -c 2 -a 0 -i 0 -k RTR
h -t 1.036110011 -s 4 -d 14 -p cbr -e 1020 -c 2 -a 0 -i 0 -k RTR
+ -t 1.036209119 -s 16 -d -1 -p AODV -e 48 -c 2 -a 0 -i 0 -k RTR 
- -t 1.036209119 -s 16 -d -1 -p AODV -e 48 -c 2 -a 0 -i 0 -k RTR
h -t 1.036209119 -s 16 -d -1 -p AODV -e 48 -c 2 -a 0 -i 0 -k RTR
+ -t 1.036870934 -s 12 -d -1 -p AODV -e 48 -c 2 -a 0 -i 0 -k RTR 
- -t 1.036870934 -s 12 -d -1 -p AODV -e 48 -c 2 -a 0 -i 0 -k RTR
h -t 1.036870934 -s 12 -d -1 -p AODV -e 48 -c 2 -a 0 -i 0 -k RTR
r -t 1.037263396 -s 8 -d -1 -p AODV -e 48 -c 2 -a 0 -i 0 -k RTR
r -t 1.037263477 -s 12 -d -1 -p AODV -e 48 -c 2 -a 0 -i 0 -k RTR
r -t 1.038382075 -s 22 -d -1 -p AODV -e 48 -c 2 -a 0 -i 0 -k RTR
r -t 1.038382289 -s 16 -d -1 -p AODV -e 48 -c 2 -a 0 -i 0 -k RTR
r -t 1.038382310 -s 8 -d -1 -p AODV -e 48 -c 2 -a 0 -i 0 -k RTR
+ -t 1.045795350 -s 14 -d 18 -p cbr -e 1020 -c 2 -a 0 -i 0 -k RTR 
- -t 1.045795350 -s 14 -d 18 -p cbr -e 1020 -c 2 -a 0 -i 0 -k RTR
h -t 1.045795350 -s 14 -d 18 -p cbr -e 1020 -c 2 -a 0 -i 0 -k RTR
+ -t 1.056041482 -s 18 -d 1 -p cbr -e 1020 -c 2 -a 0 -i 0 -k RTR 
- -t 1.056041482 -s 18 -d 1 -p cbr -e 1020 -c 2 -a 0 -i 0 -k RTR
h -t 1.056041482 -s 18 -d 1 -p cbr -e 1020 -c 2 -a 0 -i 0 -k RTR
+ -t 1.066107918 -s 1 -d 20 -p cbr -e 1020 -c 2 -a 0 -i 0 -k RTR 
- -t 1.066107918 -s 1 -d 20 -p cbr -e 1020 -c 2 -a 0 -i 0 -k RTR
h -t 1.066107918 -s 1 -d 20 -p cbr -e 1020 -c 2 -a 0 -i 0 -k RTR
r -t 1.075933128 -s 20 -d 20 -p cbr -e 1020 -c 2 -a 0 -i 0 -k AGT
+ -t 1.100000000 -s 4 -d -1 -p cbr -e 1000 -c 2 -a 0 -i 1 -k AGT 
- -t 1.100000000 -s 4 -d -1 -p cbr -e 1000 -c 2 -a 0 -i 1 -k AGT
h -t 1.100000000 -s 4 -d -1 -p cbr -e 1000 -c 2 -a 0 -i 1 -k AGT
+ -t 1.100000000 -s 4 -d 14 -p cbr -e 1020 -c 2 -a 0 -i 1 -k RTR 
- -t 1.100000000 -s 4 -d 14 -p cbr -e 1020 -c 2 -a 0 -i 1 -k RTR
h -t 1.100000000 -s 4 -d 14 -p cbr -e 1020 -c 2 -a 0 -i 1 -k RTR
+ -t 1.109541332 -s 14 -d 18 -p cbr -e 1020 -c 2 -a 0 -i 1 -k RTR 
- -t 1.109541332 -s 14 -d 18 -p cbr -e 1020 -c 2 -a 0 -i 1 -k RTR
h -t 1.109541332 -s 14 -d 18 -p cbr -e 1020 -c 2 -a 0 -i 1 -k RTR
+ -t 1.119567431 -s 18 -d 1 -p cbr -e 1020 -c 2 -a 0 -i 1 -k RTR 
- -t 1.119567431 -s 18 -d 1 -p cbr -e 1020 -c 2 -a 0 -i 1 -k RTR
h -t 1.119567431 -s 18 -d 1 -p cbr -e 1020 -c 2 -a 0 -i 1 -k RTR
+ -t 1.129653832 -s 1 -d 20 -p cbr -e 1020 -c 2 -a 0 -i 1 -k RTR 
- -t 1.129653832 -s 1 -d 20 -p cbr -e 1020 -c 2 -a 0 -i 1 -k RTR
h -t 1.129653832 -s 1 -d 20 -p cbr -e 1020 -c 2 -a 0 -i 1 -k RTR
r -t 1.139639046 -s 20 -d 20 -p cbr -e 1020 -c 2 -a 0 -i 1 -k AGT
+ -t 1.200000000 -s 4 -d -1 -p cbr -e 1000 -c 2 -a 0 -i 2 -k AGT 
- -t 1.200000000 -s 4 -d -1 -p cbr -e 1000 -c 2 -a 0 -i 2 -k AGT
h -t 1.200000000 -s 4 -d -1 -p cbr -e 1000 -c 2 -a 0 -i 2 -k AGT
+ -t 1.200000000 -s 4 -d 14 -p cbr -e 1020 -c 2 -a 0 -i 2 -k RTR 
- -t 1.200000000 -s 4 -d 14 -p cbr -e 1020 -c 2 -a 0 -i 2 -k RTR
h -t 1.200000000 -s 4 -d 14 -p cbr -e 1020 -c 2 -a 0 -i 2 -k RTR
+ -t 1.209661321 -s 14 -d 18 -p cbr -e 1020 -c 2 -a 0 -i 2 -k RTR 
- -t 1.209661321 -s 14 -d 18 -p cbr -e 1020 -c 2 -a 0 -i 2 -k RTR
h -t 1.209661321 -s 14 -d 18 -p cbr -e 1020 -c 2 -a 0 -i 2 -k RTR
+ -t 1.219427371 -s 18 -d 1 -p cbr -e 1020 -c 2 -a 0 -i 2 -k RTR 
- -t 1.219427371 -s 18 -d 1 -p cbr -e 1020 -c 2 -a 0 -i 2 -k RTR
h -t 1.219427371 -s 18 -d 1 -p cbr -e 1020 -c 2 -a 0 -i 2 -k RTR
+ -t 1.229153715 -s 1 -d 20 -p cbr -e 1020 -c 2 -a 0 -i 2 -k RTR 
- -t 1.229153715 -s 1 -d 20 -p cbr -e 1020 -c 2 -a 0 -i 2 -k RTR
h -t 1.229153715 -s 1 -d 20 -p cbr -e 1020 -c 2 -a 0 -i 2 -k RTR
r -t 1.239418940 -s 20 -d 20 -p cbr -e 1020 -c 2 -a 0 -i 2 -k AGT
+ -t 1.300000000 -s 4 -d -1 -p cbr -e 1000 -c 2 -a 0 -i 3 -k AGT 
- -t 1.300000000 -s 4 -d -1 -p cbr -e 1000 -c 2 -a 0 -i 3 -k AGT
h -t 1.300000000 -s 4 -d -1 -p cbr -e 1000 -c 2 -a 0 -i 3 -k AGT
+ -t 1.300000000 -s 4 -d 14 -p cbr -e 1020 -c 2 -a 0 -i 3 -k RTR 
- -t 1.300000000 -s 4 -d 14 -p cbr -e 1020 -c 2 -a 0 -i 3 -k RTR
h -t 1.300000000 -s 4 -d 14 -p cbr -e 1020 -c 2 -a 0 -i 3 -k RTR
+ -t 1.309421312 -s 14 -d 18 -p cbr -e 1020 -c 2 -a 0 -i 3 -k RTR 
- -t 1.309421312 -s 14 -d 18 -p cbr -e 1020 -c 2 -a 0 -i 3 -k RTR
h -t 1.309421312 -s 14 -d 18 -p cbr -e 1020 -c 2 -a 0 -i 3 -k RTR
+ -t 1.319147312 -s 18 -d 1 -p cbr -e 1020 -c 2 -a 0 -i 3 -k RTR 
- -t 1.319147312 -s 18 -d 1 -p cbr -e 1020 -c 2 -a 0 -i 3 -k RTR
h -t 1.319147312 -s 18 -d 1 -p cbr -e 1020 -c 2 -a 0 -i 3 -k RTR
+ -t 1.328833600 -s 1 -d 20 -p cbr -e 1020 -c 2 -a 0 -i 3 -k RTR 
- -t 1.328833600 -s 1 -d 20 -p cbr -e 1020 -c 2 -a 0 -i 3 -k RTR
h -t 1.328833600 -s 1 -d 20 -p cbr -e 1020 -c 2 -a 0 -i 3 -k RTR
r -t 1.338878840 -s 20 -d 20 -p cbr -e 1020 -c 2 -a 0 -i 3 -k AGT
+ -t 1.400000000 -s 4 -d -1 -p cbr -e 1000 -c 2 -a 0 -i 4 -k AGT 
- -t 1.400000000 -s 4 -d -1 -p cbr -e 1000 -c 2 -a 0 -i 4 -k AGT
h -t 1.400000000 -s 4 -d -1 -p cbr -e 1000 -c 2 -a 0 -i 4 -k AGT
+ -t 1.400000000 -s 4 -d 14 -p cbr -e 1020 -c 2 -a 0 -i 4 -k RTR 
- -t 1.400000000 -s 4 -d 14 -p cbr -e 1020 -c 2 -a 0 -i 4 -k RTR
h -t 1.400000000 -s 4 -d 14 -p cbr -e 1020 -c 2 -a 0 -i 4 -k RTR
+ -t 1.409881304 -s 14 -d 18 -p cbr -e 1020 -c 2 -a 0 -i 4 -k RTR 
- -t 1.409881304 -s 14 -d 18 -p cbr -e 1020 -c 2 -a 0 -i 4 -k RTR
h -t 1.409881304 -s 14 -d 18 -p cbr -e 1020 -c 2 -a 0 -i 4 -k RTR
+ -t 1.419867254 -s 18 -d 1 -p cbr -e 1020 -c 2 -a 0 -i 4 -k RTR 
- -t 1.419867254 -s 18 -d 1 -p cbr -e 1020 -c 2 -a 0 -i 4 -k RTR
h -t 1.419867254 -s 18 -d 1 -p cbr -e 1020 -c 2 -a 0 -i 4 -k RTR
+ -t 1.430073486 -s 1 -d 20 -p cbr -e 1020 -c 2 -a 0 -i 4 -k RTR 
- -t 1.430073486 -s 1 -d 20 -p cbr -e 1020 -c 2 -a 0 -i 4 -k RTR
h -t 1.430073486 -s 1 -d 20 -p cbr -e 1020 -c 2 -a 0 -i 4 -k RTR
r -t 1.439878744 -s 20 -d 20 -p cbr -e 1020 -c 2 -a 0 -i 4 -k AGT
+ -t 1.500000000 -s 4 -d -1 -p cbr -e 1000 -c 2 -a 0 -i 5 -k AGT 
- -t 1.500000000 -s 4 -d -1 -p cbr -e 1000 -c 2 -a 0 -i 5 -k AGT
h -t 1.500000000 -s 4 -d -1 -p cbr -e 1000 -c 2 -a 0 -i 5 -k AGT
+ -t 1.500000000 -s 4 -d 14 -p cbr -e 1020 -c 2 -a 0 -i 5 -k RTR 
- -t 1.500000000 -s 4 -d 14 -p cbr -e 1020 -c 2 -a 0 -i 5 -k RTR
h -t 1.500000000 -s 4 -d 14 -p cbr -e 1020 -c 2 -a 0 -i 5 -k RTR
+ -t 1.509501297 -s 14 -d 18 -p cbr -e 1020 -c 2 -a 0 -i 5 -k RTR 
- -t 1.509501297 -s 14 -d 18 -p cbr -e 1020 -c 2 -a 0 -i 5 -k RTR
h -t 1.509501297 -s 14 -d 18 -p cbr -e 1020 -c 2 -a 0 -i 5 -k RTR
+ -t 1.519167199 -s 18 -d 1 -p cbr -e 1020 -c 2 -a 0 -i 5 -k RTR 
- -t 1.519167199 -s 18 -d 1 -p cbr -e 1020 -c 2 -a 0 -i 5 -k RTR
h -t 1.519167199 -s 18 -d 1 -p cbr -e 1020 -c 2 -a 0 -i 5 -k RTR
+ -t 1.529393375 -s 1 -d 20 -p cbr -e 1020 -c 2 -a 0 -i 5 -k RTR 
- -t 1.529393375 -s 1 -d 20 -p cbr -e 1020 -c 2 -a 0 -i 5 -k RTR
h -t 1.529393375 -s 1 -d 20 -p cbr -e 1020 -c 2 -a 0 -i 5 -k RTR
r -t 1.539638656 -s 20 -d 20 -p cbr -e 1020 -c 2 -a 0 -i 5 -k AGT
+ -t 1.600000000 -s 4 -d -1 -p cbr -e 1000 -c 2 -a 0 -i 6 -k AGT 
- -t 1.600000000 -s 4 -d -1 -p cbr -e 1000 -c 2 -a 0 -i 6 -k AGT
h -t 1.600000000 -s 4 -d -1 -p cbr -e 1000 -c 2 -a 0 -i 6 -k AGT
+ -t 1.600000000 -s 4 -d 14 -p cbr -e 1020 -c 2 -a 0 -i 6 -k RTR 
- -t 1.600000000 -s 4 -d 14 -p cbr -e 1020 -c 2 -a 0 -i 6 -k RTR
h -t 1.600000000 -s 4 -d 14 -p cbr -e 1020 -c 2 -a 0 -i 6 -k RTR
+ -t 1.609541292 -s 14 -d 18 -p cbr -e 1020 -c 2 -a 0 -i 6 -k RTR 
- -t 1.609541292 -s 14 -d 18 -p cbr -e 1020 -c 2 -a 0 -i 6 -k RTR
h -t 1.609541292 -s 14 -d 18 -p cbr -e 1020 -c 2 -a 0 -i 6 -k RTR
+ -t 1.619447146 -s 18 -d 1 -p cbr -e 1020 -c 2 -a 0 -i 6 -k RTR 
- -t 1.619447146 -s 18 -d 1 -p cbr -e 1020 -c 2 -a 0 -i 6 -k RTR
h -t 1.619447146 -s 18 -d 1 -p cbr -e 1020 -c 2 -a 0 -i 6 -k RTR
+ -t 1.629213266 -s 1 -d 20 -p cbr -e 1020 -c 2 -a 0 -i 6 -k RTR 
- -t 1.629213266 -s 1 -d 20 -p cbr -e 1020 -c 2 -a 0 -i 6 -k RTR
h -t 1.629213266 -s 1 -d 20 -p cbr -e 1020 -c 2 -a 0 -i 6 -k RTR
r -t 1.638878572 -s 20 -d 20 -p cbr -e 1020 -c 2 -a 0 -i 6 -k AGT
+ -t 1.700000000 -s 4 -d -1 -p cbr -e 1000 -c 2 -a 0 -i 7 -k AGT 
- -t 1.700000000 -s 4 -d -1 -p cbr -e 1000 -c 2 -a 0 -i 7 -k AGT
h -t 1.700000000 -s 4 -d -1 -p cbr -e 1000 -c 2 -a 0 -i 7 -k AGT
+ -t 1.700000000 -s 4 -d 14 -p cbr -e 1020 -c 2 -a 0 -i 7 -k RTR 
- -t 1.700000000 -s 4 -d 14 -p cbr -e 1020 -c 2 -a 0 -i 7 -k RTR
h -t 1.700000000 -s 4 -d 14 -p cbr -e 1020 -c 2 -a 0 -i 7 -k RTR
+ -t 1.709641288 -s 14 -d 18 -p cbr -e 1020 -c 2 -a 0 -i 7 -k RTR 
- -t 1.709641288 -s 14 -d 18 -p cbr -e 1020 -c 2 -a 0 -i 7 -k RTR
h -t 1.709641288 -s 14 -d 18 -p cbr -e 1020 -c 2 -a 0 -i 7 -k RTR
+ -t 1.719307094 -s 18 -d 1 -p cbr -e 1020 -c 2 -a 0 -i 7 -k RTR 
- -t 1.719307094 -s 18 -d 1 -p cbr -e 1020 -c 2 -a 0 -i 7 -k RTR
h -t 1.719307094 -s 18 -d 1 -p cbr -e 1020 -c 2 -a 0 -i 7 -k RTR
+ -t 1.729333159 -s 1 -d 20 -p cbr -e 1020 -c 2 -a 0 -i 7 -k RTR 
- -t 1.729333159 -s 1 -d 20 -p cbr -e 1020 -c 2 -a 0 -i 7 -k RTR
h -t 1.729333159 -s 1 -d 20 -p cbr -e 1020 -c 2 -a 0 -i 7 -k RTR
r -t 1.739498494 -s 20 -d 20 -p cbr -e 1020 -c 2 -a 0 -i 7 -k AGT
+ -t 1.800000000 -s 4 -d -1 -p cbr -e 1000 -c 2 -a 0 -i 8 -k AGT 
- -t 1.800000000 -s 4 -d -1 -p cbr -e 1000 -c 2 -a 0 -i 8 -k AGT
h -t 1.800000000 -s 4 -d -1 -p cbr -e 1000 -c 2 -a 0 -i 8 -k AGT
+ -t 1.800000000 -s 4 -d 14 -p cbr -e 1020 -c 2 -a 0 -i 8 -k RTR 
- -t 1.800000000 -s 4 -d 14 -p cbr -e 1020 -c 2 -a 0 -i 8 -k RTR
h -t 1.800000000 -s 4 -d 14 -p cbr -e 1020 -c 2 -a 0 -i 8 -k RTR
+ -t 1.809941285 -s 14 -d 18 -p cbr -e 1020 -c 2 -a 0 -i 8 -k RTR 
- -t 1.809941285 -s 14 -d 18 -p cbr -e 1020 -c 2 -a 0 -i 8 -k RTR
h -t 1.809941285 -s 14 -d 18 -p cbr -e 1020 -c 2 -a 0 -i 8 -k RTR
+ -t 1.820147044 -s 18 -d 1 -p cbr -e 1020 -c 2 -a 0 -i 8 -k RTR 
- -t 1.820147044 -s 18 -d 1 -p cbr -e 1020 -c 2 -a 0 -i 8 -k RTR
h -t 1.820147044 -s 18 -d 1 -p cbr -e 1020 -c 2 -a 0 -i 8 -k RTR
+ -t 1.830293053 -s 1 -d 20 -p cbr -e 1020 -c 2 -a 0 -i 8 -k RTR 
- -t 1.830293053 -s 1 -d 20 -p cbr -e 1020 -c 2 -a 0 -i 8 -k RTR
h -t 1.830293053 -s 1 -d 20 -p cbr -e 1020 -c 2 -a 0 -i 8 -k RTR
r -t 1.839958420 -s 20 -d 20 -p cbr -e 1020 -c 2 -a 0 -i 8 -k AGT
+ -t 1.900000000 -s 4 -d -1 -p cbr -e 1000 -c 2 -a 0 -i 9 -k AGT 
- -t 1.900000000 -s 4 -d -1 -p cbr -e 1000 -c 2 -a 0 -i 9 -k AGT
h -t 1.900000000 -s 4 -d -1 -p cbr -e 1000 -c 2 -a 0 -i 9 -k AGT
+ -t 1.900000000 -s 4 -d 14 -p cbr -e 1020 -c 2 -a 0 -i 9 -k RTR 
- -t 1.900000000 -s 4 -d 14 -p cbr -e 1020 -c 2 -a 0 -i 9 -k RTR
h -t 1.900000000 -s 4 -d 14 -p cbr -e 1020 -c 2 -a 0 -i 9 -k RTR
+ -t 1.909701284 -s 14 -d 18 -p cbr -e 1020 -c 2 -a 0 -i 9 -k RTR 
- -t 1.909701284 -s 14 -d 18 -p cbr -e 1020 -c 2 -a 0 -i 9 -k RTR
h -t 1.909701284 -s 14 -d 18 -p cbr -e 1020 -c 2 -a 0 -i 9 -k RTR
+ -t 1.919706997 -s 18 -d 1 -p cbr -e 1020 -c 2 -a 0 -i 9 -k RTR 
- -t 1.919706997 -s 18 -d 1 -p cbr -e 1020 -c 2 -a 0 -i 9 -k RTR
h -t 1.919706997 -s 18 -d 1 -p cbr -e 1020 -c 2 -a 0 -i 9 -k RTR
+ -t 1.929852952 -s 1 -d 20 -p cbr -e 1020 -c 2 -a 0 -i 9 -k RTR 
- -t 1.929852952 -s 1 -d 20 -p cbr -e 1020 -c 2 -a 0 -i 9 -k RTR
h -t 1.929852952 -s 1 -d 20 -p cbr -e 1020 -c 2 -a 0 -i 9 -k RTR
r -t 1.940038353 -s 20 -d 20 -p cbr -e 1020 -c 2 -a 0 -i 9 -k AGT
+ -t 2.000000000 -s 4 -d -1 -p cbr -e 1000 -c 2 -a 0 -i 10 -k AGT 
- -t 2.000000000 -s 4 -d -1 -p cbr -e 1000 -c 2 -a 0 -i 10 -k AGT
h -t 2.000000000 -s 4 -d -1 -p cbr -e 1000 -c 2 -a 0 -i 10 -k AGT
+ -t 2.000000000 -s 4 -d 14 -p cbr -e 1020 -c 2 -a 0 -i 10 -k RTR 
- -t 2.000000000 -s 4 -d 14 -p cbr -e 1020 -c 2 -a 0 -i 10 -k RTR
h -t 2.000000000 -s 4 -d 14 -p cbr -e 1020 -c 2 -a 0 -i 10 -k RTR
+ -t 2.010001284 -s 14 -d 18 -p cbr -e 1020 -c 2 -a 0 -i 10 -k RTR 
- -t 2.010001284 -s 14 -d 18 -p cbr -e 1020 -c 2 -a 0 -i 10 -k RTR
h -t 2.010001284 -s 14 -d 18 -p cbr -e 1020 -c 2 -a 0 -i 10 -k RTR
+ -t 2.019666951 -s 18 -d 1 -p cbr -e 1020 -c 2 -a 0 -i 10 -k RTR 
- -t 2.019666951 -s 18 -d 1 -p cbr -e 1020 -c 2 -a 0 -i 10 -k RTR
h -t 2.019666951 -s 18 -d 1 -p cbr -e 1020 -c 2 -a 0 -i 10 -k RTR
+ -t 2.029652852 -s 1 -d 20 -p cbr -e 1020 -c 2 -a 0 -i 10 -k RTR 
- -t 2.029652852 -s 1 -d 20 -p cbr -e 1020 -c 2 -a 0 -i 10 -k RTR
h -t 2.029652852 -s 1 -d 20 -p cbr -e 1020 -c 2 -a 0 -i 10 -k RTR
r -t 2.039378291 -s 20 -d 20 -p cbr -e 1020 -c 2 -a 0 -i 10 -k AGT
+ -t 2.100000000 -s 4 -d -1 -p cbr -e 1000 -c 2 -a 0 -i 11 -k AGT 
- -t 2.100000000 -s 4 -d -1 -p cbr -e 1000 -c 2 -a 0 -i 11 -k AGT
h -t 2.100000000 -s 4 -d -1 -p cbr -e 1000 -c 2 -a 0 -i 11 -k AGT
+ -t 2.100000000 -s 4 -d 14 -p cbr -e 1020 -c 2 -a 0 -i 11 -k RTR 
- -t 2.100000000 -s 4 -d 14 -p cbr -e 1020 -c 2 -a 0 -i 11 -k RTR
h -t 2.100000000 -s 4 -d 14 -p cbr -e 1020 -c 2 -a 0 -i 11 -k RTR
+ -t 2.109521286 -s 14 -d 18 -p cbr -e 1020 -c 2 -a 0 -i 11 -k RTR 
- -t 2.109521286 -s 14 -d 18 -p cbr -e 1020 -c 2 -a 0 -i 11 -k RTR
h -t 2.109521286 -s 14 -d 18 -p cbr -e 1020 -c 2 -a 0 -i 11 -k RTR
+ -t 2.119646908 -s 18 -d 1 -p cbr -e 1020 -c 2 -a 0 -i 11 -k RTR 
- -t 2.119646908 -s 18 -d 1 -p cbr -e 1020 -c 2 -a 0 -i 11 -k RTR
h -t 2.119646908 -s 18 -d 1 -p cbr -e 1020 -c 2 -a 0 -i 11 -k RTR
+ -t 2.129312755 -s 1 -d 20 -p cbr -e 1020 -c 2 -a 0 -i 11 -k RTR 
- -t 2.129312755 -s 1 -d 20 -p cbr -e 1020 -c 2 -a 0 -i 11 -k RTR
h -t 2.129312755 -s 1 -d 20 -p cbr -e 1020 -c 2 -a 0 -i 11 -k RTR
r -t 2.139538233 -s 20 -d 20 -p cbr -e 1020 -c 2 -a 0 -i 11 -k AGT
+ -t 2.200000000 -s 4 -d -1 -p cbr -e 1000 -c 2 -a 0 -i 12 -k AGT 
- -t 2.200000000 -s 4 -d -1 -p cbr -e 1000 -c 2 -a 0 -i 12 -k AGT
h -t 2.200000000 -s 4 -d -1 -p cbr -e 1000 -c 2 -a 0 -i 12 -k AGT
+ -t 2.200000000 -s 4 -d 14 -p cbr -e 1020 -c 2 -a 0 -i 12 -k RTR 
- -t 2.200000000 -s 4 -d 14 -p cbr -e 1020 -c 2 -a 0 -i 12 -k RTR
h -t 2.200000000 -s 4 -d 14 -p cbr -e 1020 -c 2 -a 0 -i 12 -k RTR
+ -t 2.209561288 -s 14 -d 18 -p cbr -e 1020 -c 2 -a 0 -i 12 -k RTR 
- -t 2.209561288 -s 14 -d 18 -p cbr -e 1020 -c 2 -a 0 -i 12 -k RTR
h -t 2.209561288 -s 14 -d 18 -p cbr -e 1020 -c 2 -a 0 -i 12 -k RTR
+ -t 2.219586866 -s 18 -d 1 -p cbr -e 1020 -c 2 -a 0 -i 12 -k RTR 
- -t 2.219586866 -s 18 -d 1 -p cbr -e 1020 -c 2 -a 0 -i 12 -k RTR
h -t 2.219586866 -s 18 -d 1 -p cbr -e 1020 -c 2 -a 0 -i 12 -k RTR
+ -t 2.229472660 -s 1 -d 20 -p cbr -e 1020 -c 2 -a 0 -i 12 -k RTR 
- -t 2.229472660 -s 1 -d 20 -p cbr -e 1020 -c 2 -a 0 -i 12 -k RTR
h -t 2.229472660 -s 1 -d 20 -p cbr -e 1020 -c 2 -a 0 -i 12 -k RTR
r -t 2.239178181 -s 20 -d 20 -p cbr -e 1020 -c 2 -a 0 -i 12 -k AGT
+ -t 2.300000000 -s 4 -d -1 -p cbr -e 1000 -c 2 -a 0 -i 13 -k AGT 
- -t 2.300000000 -s 4 -d -1 -p cbr -e 1000 -c 2 -a 0 -i 13 -k AGT