v 0.01 eval {set sim_annotation {Network Deployment}}
M 0.10000 0 (322.45, 352.27, 0.00), (912.49, 172.42), 40.00
M 0.10000 1 (789.78, 732.96, 0.00), (315.94, 20.92), 40.00
M 0.10000 2 (513.84, 64.85, 0.00), (598.60, 526.13), 40.00
M 0.10000 3 (437.91, 765.73, 0.00), (315.47, 117.52), 40.00
M 0.10000 4 (104.13, 34.78, 0.00), (878.08, 763.76), 40.00
M 0.10000 5 (785.33, 3.35, 0.00), (625.96, 374.79), 40.00
M 0.10000 6 (347.87, 493.10, 0.00), (965.57, 328.77), 40.00
M 0.10000 7 (330.92, 653.04, 0.00), (141.33, 302.04), 40.00
M 0.10000 8 (607.19, 778.76, 0.00), (415.04, 501.15), 40.00
M 0.10000 9 (825.97, 22.48, 0.00), (553.42, 294.10), 40.00
M 0.10000 10 (294.61, 418.93, 0.00), (666.19, 558.13), 40.00
M 0.10000 11 (268.66, 335.58, 0.00), (646.18, 284.81), 40.00
M 0.10000 12 (181.11, 668.42, 0.00), (455.64, 739.15), 40.00
M 0.10000 13 (648.91, 213.45, 0.00), (688.82, 9.07), 40.00
M 0.10000 14 (219.24, 548.51, 0.00), (533.29, 781.55), 40.00
M 0.10000 15 (415.91, 104.71, 0.00), (304.26, 579.99), 40.00
M 0.10000 16 (905.43, 479.31, 0.00), (771.02, 469.95), 40.00
M 0.10000 17 (782.68, 450.73, 0.00), (157.62, 35.58), 40.00
M 0.10000 18 (327.02, 161.88, 0.00), (530.54, 647.02), 40.00
M 0.10000 19 (858.12, 293.56, 0.00), (183.58, 314.79), 40.00
M 0.10000 20 (339.01, 593.21, 0.00), (251.65, 386.26), 40.00
M 0.10000 21 (507.31, 346.86, 0.00), (750.55, 363.32), 40.00
M 0.10000 22 (105.26, 83.18, 0.00), (943.63, 533.31), 40.00
M 0.10000 23 (545.33, 254.37, 0.00), (121.09, 63.81), 40.00
M 0.10000 24 (52.16, 481.37, 0.00), (582.59, 421.50), 40.00
s 1.000000000 _4_ AGT  --- 0 cbr 1000 [0 0 0 0] [energy 100.000000 ei 0.000 es 0.000 et 0.000 er 0.000] ------- [4:0 20:0 32 0] [0] 0 0
r 1.000000000 _4_ RTR  --- 0 cbr 1000 [0 0 0 0] [energy 100.000000 ei 0.000 es 0.000 et 0.000 er 0.000] ------- [4:0 20:0 32 0] [0] 0 0
s 1.000000000 _4_ RTR  --- 0 AODV 48 [0 0 0 0] [energy 100.000000 ei 0.000 es 0.000 et 0.000 er 0.000] ------- [4:255 -1:255 30 0] [0x2 1 1 [20 0] [4 4]] (REQUEST)
N -t 1.000535 -n 22 -e 99.999746
N -t 1.000536 -n 18 -e 99.999746
N -t 1.000536 -n 15 -e 99.999746
N -t 1.000536 -n 11 -e 99.999746
N -t 1.000536 -n 0 -e 99.999746
N -t 1.000536 -n 2 -e 99.999746
N -t 1.000536 -n 24 -e 99.999746
N -t 1.000536 -n 10 -e 99.999746
N -t 1.000536 -n 23 -e 99.999746
N -t 1.000537 -n 6 -e 99.999746
N -t 1.000537 -n 21 -e 99.999746
N -t 1.000537 -n 14 -e 99.999746
N -t 1.000537 -n 13 -e 99.999746
r 1.001408138 _22_ RTR  --- 0 AODV 48 [0 ffffffff 4 800] [energy 99.999746 ei 0.000 es 0.000 et 0.000 er 0.000] ------- [4:255 -1:255 30 0] [0x2 1 1 [20 0] [4 4]] (REQUEST)
s 1.001550184 _22_ RTR  --- 0 AODV 48 [0 ffffffff 4 800] [energy 99.999746 ei 0.000 es 0.000 et 0.000 er 0.000] ------- [22:255 -1:255 29 0] [0x2 2 1 [20 0] [4 4]] (REQUEST)
N -t 1.001925 -n 4 -e 99.999237
N -t 1.001926 -n 18 -e 99.999491
N -t 1.001926 -n 15 -e 99.999491
N -t 1.001926 -n 11 -e 99.999491
N -t 1.001926 -n 0 -e 99.999491
N -t 1.001926 -n 24 -e 99.999491
N -t 1.001926 -n 10 -e 99.999491
N -t 1.001926 -n 2 -e 99.999491
N -t 1.001927 -n 23 -e 99.999491
N -t 1.001927 -n 6 -e 99.999491
N -t 1.001927 -n 21 -e 99.999491
N -t 1.001927 -n 14 -e 99.999491
N -t 1.001927 -n 20 -e 99.999746
N -t 1.001927 -n 13 -e 99.999491
r 1.002798322 _4_ RTR  --- 0 AODV 48 [0 ffffffff 16 800] [energy 99.999237 ei 0.000 es 0.000 et 0.001 er 0.000] ------- [22:255 -1:255 29 0] [0x2 2 1 [20 0] [4 4]] (REQUEST)
r 1.002798934 _18_ RTR  --- 0 AODV 48 [0 ffffffff 16 800] [energy 99.999491 ei 0.000 es 0.000 et 0.000 er 0.001] ------- [22:255 -1:255 29 0] [0x2 2 1 [20 0] [4 4]] (REQUEST)
s 1.010790488 _18_ RTR  --- 0 AODV 48 [0 ffffffff 16 800] [energy 99.999491 ei 0.000 es 0.000 et 0.000 er 0.001] ------- [18:255 -1:255 28 0] [0x2 3 1 [20 0] [4 4]] (REQUEST)
N -t 1.011026 -n 15 -e 99.999237
N -t 1.011026 -n 11 -e 99.999237
N -t 1.011026 -n 0 -e 99.999237
N -t 1.011026 -n 23 -e 99.999237
N -t 1.011026 -n 2 -e 99.999237
N -t 1.011026 -n 22 -e 99.998982
N -t 1.011026 -n 10 -e 99.999237
N -t 1.011026 -n 4 -e 99.998982
N -t 1.011026 -n 21 -e 99.999237
N -t 1.011026 -n 6 -e 99.999237
N -t 1.011027 -n 13 -e 99.999237
N -t 1.011027 -n 20 -e 99.999491
N -t 1.011027 -n 24 -e 99.999237
N -t 1.011027 -n 14 -e 99.999237
N -t 1.011027 -n 7 -e 99.999746
N -t 1.011027 -n 5 -e 99.999746
N -t 1.011027 -n 17 -e 99.999746
N -t 1.011027 -n 9 -e 99.999746
N -t 1.011027 -n 19 -e 99.999746
N -t 1.011027 -n 12 -e 99.999746
r 1.011898777 _15_ RTR  --- 0 AODV 48 [0 ffffffff 12 800] [energy 99.999237 ei 0.000 es 0.000 et 0.000 er 0.001] ------- [18:255 -1:255 28 0] [0x2 3 1 [20 0] [4 4]] (REQUEST)
r 1.011898955 _11_ RTR  --- 0 AODV 48 [0 ffffffff 12 800] [energy 99.999237 ei 0.000 es 0.000 et 0.000 er 0.001] ------- [18:255 -1:255 28 0] [0x2 3 1 [20 0] [4 4]] (REQUEST)
r 1.011898979 _0_ RTR  --- 0 AODV 48 [0 ffffffff 12 800] [energy 99.999237 ei 0.000 es 0.000 et 0.000 er 0.001] ------- [18:255 -1:255 28 0] [0x2 3 1 [20 0] [4 4]] (REQUEST)
r 1.011899077 _23_ RTR  --- 0 AODV 48 [0 ffffffff 12 800] [energy 99.999237 ei 0.000 es 0.000 et 0.000 er 0.001] ------- [18:255 -1:255 28 0] [0x2 3 1 [20 0] [4 4]] (REQUEST)
r 1.011899165 _2_ RTR  --- 0 AODV 48 [0 ffffffff 12 800] [energy 99.999237 ei 0.000 es 0.000 et 0.000 er 0.001] ------- [18:255 -1:255 28 0] [0x2 3 1 [20 0] [4 4]] (REQUEST)
r 1.011899238 _22_ RTR  --- 0 AODV 48 [0 ffffffff 12 800] [energy 99.998982 ei 0.000 es 0.000 et 0.001 er 0.001] ------- [18:255 -1:255 28 0] [0x2 3 1 [20 0] [4 4]] (REQUEST)
r 1.011899277 _10_ RTR  --- 0 AODV 48 [0 ffffffff 12 800] [energy 99.999237 ei 0.000 es 0.000 et 0.000 er 0.001] ------- [18:255 -1:255 28 0] [0x2 3 1 [20 0] [4 4]] (REQUEST)
s 1.012327223 _10_ RTR  --- 0 AODV 48 [0 ffffffff 12 800] [energy 99.999237 ei 0.000 es 0.000 et 0.000 er 0.001] ------- [10:255 -1:255 27 0] [0x2 4 1 [20 0] [4 4]] (REQUEST)
N -t 1.012562 -n 6 -e 99.998982
N -t 1.012563 -n 0 -e 99.998982
N -t 1.012563 -n 11 -e 99.998982
N -t 1.012563 -n 20 -e 99.999237
N -t 1.012563 -n 14 -e 99.998982
N -t 1.012563 -n 7 -e 99.999491
N -t 1.012563 -n 21 -e 99.998982
N -t 1.012563 -n 18 -e 99.998728
N -t 1.012563 -n 24 -e 99.998982
N -t 1.012563 -n 23 -e 99.998982
N -t 1.012563 -n 12 -e 99.999491
N -t 1.012563 -n 15 -e 99.998982
N -t 1.012563 -n 3 -e 99.999746
N -t 1.012563 -n 2 -e 99.998982
N -t 1.012563 -n 22 -e 99.998728
N -t 1.012564 -n 8 -e 99.999746
N -t 1.012564 -n 13 -e 99.998982
N -t 1.012564 -n 4 -e 99.998728
N -t 1.012564 -n 17 -e 99.999491
N -t 1.012564 -n 19 -e 99.999491
N -t 1.012564 -n 1 -e 99.999746
r 1.013435473 _6_ RTR  --- 0 AODV 48 [0 ffffffff a 800] [energy 99.998982 ei 0.000 es 0.000 et 0.000 er 0.001] ------- [10:255 -1:255 27 0] [0x2 4 1 [20 0] [4 4]] (REQUEST)
r 1.013435538 _0_ RTR  --- 0 AODV 48 [0 ffffffff a 800] [energy 99.998982 ei 0.000 es 0.000 et 0.000 er 0.001] ------- [10:255 -1:255 27 0] [0x2 4 1 [20 0] [4 4]] (REQUEST)
r 1.013435569 _11_ RTR  --- 0 AODV 48 [0 ffffffff a 800] [energy 99.998982 ei 0.000 es 0.000 et 0.000 er 0.001] ------- [10:255 -1:255 27 0] [0x2 4 1 [20 0] [4 4]] (REQUEST)
r 1.013435649 _20_ RTR  --- 0 AODV 48 [0 ffffffff a 800] [energy 99.999237 ei 0.000 es 0.000 et 0.000 er 0.001] ------- [10:255 -1:255 27 0] [0x2 4 1 [20 0] [4 4]] (REQUEST)
s 1.013435649 _20_ RTR  --- 0 AODV 44 [0 0 0 0] [energy 99.999237 ei 0.000 es 0.000 et 0.000 er 0.001] ------- [20:255 4:255 30 10] [0x4 1 [20 4] 10.000000] (REPLY)
r 1.013435756 _14_ RTR  --- 0 AODV 48 [0 ffffffff a 800] [energy 99.998982 ei 0.000 es 0.000 et 0.000 er 0.001] ------- [10:255 -1:255 27 0] [0x2 4 1 [20 0] [4 4]] (REQUEST)
r 1.013435855 _7_ RTR  --- 0 AODV 48 [0 ffffffff a 800] [energy 99.999491 ei 0.000 es 0.000 et 0.000 er 0.001] ------- [10:255 -1:255 27 0] [0x2 4 1 [20 0] [4 4]] (REQUEST)
r 1.013435990 _21_ RTR  --- 0 AODV 48 [0 ffffffff a 800] [energy 99.998982 ei 0.000 es 0.000 et 0.000 er 0.001] ------- [10:255 -1:255 27 0] [0x2 4 1 [20 0] [4 4]] (REQUEST)
r 1.013436011 _18_ RTR  --- 0 AODV 48 [0 ffffffff a 800] [energy 99.998728 ei 0.000 es 0.000 et 0.001 er 0.001] ------- [10:255 -1:255 27 0] [0x2 4 1 [20 0] [4 4]] (REQUEST)
r 1.013436038 _24_ RTR  --- 0 AODV 48 [0 ffffffff a 800] [energy 99.998982 ei 0.000 es 0.000 et 0.000 er 0.001] ------- [10:255 -1:255 27 0] [0x2 4 1 [20 0] [4 4]] (REQUEST)
s 1.013540619 _2_ RTR  --- 0 AODV 48 [0 ffffffff 12 800] [energy 99.998982 ei 0.000 es 0.000 et 0.000 er 0.001] ------- [2:255 -1:255 27 0] [0x2 4 1 [20 0] [4 4]] (REQUEST)
N -t 1.013691 -n 7 -e 99.999285
N -t 1.013691 -n 14 -e 99.998776
N -t 1.013691 -n 6 -e 99.998776
N -t 1.013691 -n 10 -e 99.998522
N -t 1.013691 -n 12 -e 99.999285
N -t 1.013691 -n 3 -e 99.999539
N -t 1.013691 -n 0 -e 99.998776
N -t 1.013691 -n 11 -e 99.998776
N -t 1.013691 -n 24 -e 99.998776
N -t 1.013692 -n 21 -e 99.998776
N -t 1.013692 -n 8 -e 99.999539
N -t 1.013692 -n 18 -e 99.998522
N -t 1.013692 -n 23 -e 99.998776
N -t 1.013692 -n 15 -e 99.998776
N -t 1.013692 -n 17 -e 99.999285
N -t 1.013692 -n 1 -e 99.999539
N -t 1.013692 -n 22 -e 99.998522
N -t 1.013692 -n 2 -e 99.998776
N -t 1.013692 -n 13 -e 99.998776
N -t 1.013692 -n 4 -e 99.998522
s 1.014244794 _15_ RTR  --- 0 AODV 48 [0 ffffffff 12 800] [energy 99.998776 ei 0.000 es 0.000 et 0.000 er 0.001] ------- [15:255 -1:255 27 0] [0x2 4 1 [20 0] [4 4]] (REQUEST)
s 1.014377378 _21_ RTR  --- 0 AODV 48 [0 ffffffff a 800] [energy 99.998776 ei 0.000 es 0.000 et 0.000 er 0.001] ------- [21:255 -1:255 26 0] [0x2 5 1 [20 0] [4 4]] (REQUEST)
N -t 1.014569 -n 6 -e 99.998670
N -t 1.014569 -n 0 -e 99.998670
N -t 1.014569 -n 11 -e 99.998670
N -t 1.014570 -n 20 -e 99.998718
N -t 1.014570 -n 14 -e 99.998670
N -t 1.014570 -n 7 -e 99.999179
N -t 1.014570 -n 21 -e 99.998670
N -t 1.014570 -n 18 -e 99.998416
N -t 1.014570 -n 24 -e 99.998670
N -t 1.014570 -n 23 -e 99.998670
N -t 1.014570 -n 12 -e 99.999179
N -t 1.014570 -n 15 -e 99.998670
N -t 1.014570 -n 3 -e 99.999434
N -t 1.014570 -n 2 -e 99.998670
N -t 1.014570 -n 22 -e 99.998416
N -t 1.014570 -n 8 -e 99.999434
N -t 1.014570 -n 13 -e 99.998670
N -t 1.014570 -n 4 -e 99.998416
N -t 1.014570 -n 17 -e 99.999179
N -t 1.014571 -n 19 -e 99.999386
N -t 1.014571 -n 1 -e 99.999434
N -t 1.014932 -n 7 -e 99.999088
N -t 1.014932 -n 14 -e 99.998579
N -t 1.014932 -n 6 -e 99.998579
N -t 1.014932 -n 10 -e 99.998219
N -t 1.014932 -n 12 -e 99.999088
N -t 1.014932 -n 3 -e 99.999342
N -t 1.014932 -n 0 -e 99.998579
N -t 1.014932 -n 11 -e 99.998579
N -t 1.014932 -n 24 -e 99.998579
N -t 1.014933 -n 21 -e 99.998579
N -t 1.014933 -n 8 -e 99.999342
N -t 1.014933 -n 18 -e 99.998325
N -t 1.014933 -n 23 -e 99.998579
N -t 1.014933 -n 15 -e 99.998579
N -t 1.014933 -n 17 -e 99.999088
N -t 1.014933 -n 1 -e 99.999342
N -t 1.014933 -n 22 -e 99.998325
N -t 1.014933 -n 2 -e 99.998579
N -t 1.014933 -n 13 -e 99.998579
N -t 1.014933 -n 4 -e 99.998325
s 1.014989769 _0_ RTR  --- 0 AODV 48 [0 ffffffff 12 800] [energy 99.998579 ei 0.000 es 0.000 et 0.000 er 0.001] ------- [0:255 -1:255 27 0] [0x2 4 1 [20 0] [4 4]] (REQUEST)
s 1.015183908 _7_ RTR  --- 0 AODV 48 [0 ffffffff a 800] [energy 99.999088 ei 0.000 es 0.000 et 0.000 er 0.001] ------- [7:255 -1:255 26 0] [0x2 5 1 [20 0] [4 4]] (REQUEST)
N -t 1.015246 -n 6 -e 99.998373
N -t 1.015246 -n 0 -e 99.998373
N -t 1.015246 -n 11 -e 99.998373
N -t 1.015246 -n 20 -e 99.998330
N -t 1.015246 -n 14 -e 99.998373
N -t 1.015247 -n 7 -e 99.998882
N -t 1.015247 -n 21 -e 99.998373
N -t 1.015247 -n 18 -e 99.998118
N -t 1.015247 -n 24 -e 99.998373
N -t 1.015247 -n 23 -e 99.998373
N -t 1.015247 -n 12 -e 99.998882
N -t 1.015247 -n 15 -e 99.998373
N -t 1.015247 -n 3 -e 99.999136
N -t 1.015247 -n 2 -e 99.998373
N -t 1.015247 -n 22 -e 99.998118
N -t 1.015247 -n 8 -e 99.999136
N -t 1.015247 -n 13 -e 99.998373
N -t 1.015247 -n 4 -e 99.998118
N -t 1.015247 -n 17 -e 99.998882
N -t 1.015248 -n 19 -e 99.999179
N -t 1.015248 -n 1 -e 99.999136
N -t 1.015945 -n 7 -e 99.998790
N -t 1.015945 -n 14 -e 99.998282
N -t 1.015945 -n 6 -e 99.998282
N -t 1.015945 -n 10 -e 99.997715
N -t 1.015945 -n 12 -e 99.998790
N -t 1.015945 -n 3 -e 99.999045
N -t 1.015945 -n 0 -e 99.998282
N -t 1.015945 -n 11 -e 99.998282
N -t 1.015945 -n 24 -e 99.998282
N -t 1.015945 -n 21 -e 99.998282
N -t 1.015945 -n 8 -e 99.999045
N -t 1.015946 -n 18 -e 99.998027
N -t 1.015946 -n 23 -e 99.998282
N -t 1.015946 -n 15 -e 99.998282
N -t 1.015946 -n 17 -e 99.998790
N -t 1.015946 -n 1 -e 99.999045
N -t 1.015946 -n 22 -e 99.998027
N -t 1.015946 -n 2 -e 99.998282
N -t 1.015946 -n 13 -e 99.998282
N -t 1.015946 -n 4 -e 99.998027
N -t 1.016399 -n 7 -e 99.998685
N -t 1.016399 -n 14 -e 99.998176
N -t 1.016399 -n 6 -e 99.998176
N -t 1.016399 -n 10 -e 99.997610
N -t 1.016399 -n 12 -e 99.998685
N -t 1.016399 -n 3 -e 99.998939
N -t 1.016399 -n 0 -e 99.998176
N -t 1.016399 -n 11 -e 99.998176
N -t 1.016399 -n 24 -e 99.998176
N -t 1.016399 -n 21 -e 99.998176
N -t 1.016399 -n 8 -e 99.998939
N -t 1.016400 -n 18 -e 99.997922
N -t 1.016400 -n 23 -e 99.998176
N -t 1.016400 -n 15 -e 99.998176
N -t 1.016400 -n 17 -e 99.998685
N -t 1.016400 -n 1 -e 99.998939
N -t 1.016400 -n 22 -e 99.997922
N -t 1.016400 -n 2 -e 99.998176
N -t 1.016400 -n 13 -e 99.998176
N -t 1.016400 -n 4 -e 99.997922
N -t 1.016761 -n 6 -e 99.998085
N -t 1.016761 -n 0 -e 99.998085
N -t 1.016761 -n 11 -e 99.998085
N -t 1.016761 -n 20 -e 99.997845
N -t 1.016761 -n 14 -e 99.998085
N -t 1.016761 -n 7 -e 99.998594
N -t 1.016762 -n 21 -e 99.998085
N -t 1.016762 -n 18 -e 99.997830
N -t 1.016762 -n 24 -e 99.998085
N -t 1.016762 -n 23 -e 99.998085
N -t 1.016762 -n 12 -e 99.998594
N -t 1.016762 -n 15 -e 99.998085
N -t 1.016762 -n 3 -e 99.998848
N -t 1.016762 -n 2 -e 99.998085
N -t 1.016762 -n 22 -e 99.997830
N -t 1.016762 -n 8 -e 99.998848
N -t 1.016762 -n 13 -e 99.998085
N -t 1.016762 -n 4 -e 99.997830
N -t 1.016762 -n 17 -e 99.998594
N -t 1.016762 -n 19 -e 99.999088
N -t 1.016763 -n 1 -e 99.998848
N -t 1.017075 -n 7 -e 99.998349
N -t 1.017075 -n 14 -e 99.997840
N -t 1.017076 -n 6 -e 99.997840
N -t 1.017076 -n 10 -e 99.997182
N -t 1.017076 -n 12 -e 99.998349
N -t 1.017076 -n 3 -e 99.998603
N -t 1.017076 -n 0 -e 99.997840
N -t 1.017076 -n 11 -e 99.997840
N -t 1.017076 -n 24 -e 99.997840
N -t 1.017076 -n 21 -e 99.997840
N -t 1.017076 -n 8 -e 99.998603
N -t 1.017076 -n 18 -e 99.997586
N -t 1.017076 -n 23 -e 99.997840
N -t 1.017077 -n 15 -e 99.997840
N -t 1.017077 -n 17 -e 99.998349
N -t 1.017077 -n 1 -e 99.998603
N -t 1.017077 -n 22 -e 99.997586
N -t 1.017077 -n 2 -e 99.997840
N -t 1.017077 -n 13 -e 99.997840
N -t 1.017077 -n 4 -e 99.997586
s 1.017672324 _14_ RTR  --- 0 AODV 48 [0 ffffffff a 800] [energy 99.997840 ei 0.000 es 0.000 et 0.000 er 0.002] ------- [14:255 -1:255 26 0] [0x2 5 1 [20 0] [4 4]] (REQUEST)
N -t 1.017902 -n 6 -e 99.997749
N -t 1.017902 -n 0 -e 99.997749
N -t 1.017902 -n 11 -e 99.997749
N -t 1.017902 -n 20 -e 99.997264
N -t 1.017902 -n 14 -e 99.997749
N -t 1.017902 -n 7 -e 99.998258
N -t 1.017902 -n 21 -e 99.997749
N -t 1.017902 -n 18 -e 99.997494
N -t 1.017902 -n 24 -e 99.997749
N -t 1.017903 -n 23 -e 99.997749
N -t 1.017903 -n 12 -e 99.998258
N -t 1.017903 -n 15 -e 99.997749
N -t 1.017903 -n 3 -e 99.998512
N -t 1.017903 -n 2 -e 99.997749
N -t 1.017903 -n 22 -e 99.997494
N -t 1.017903 -n 8 -e 99.998512
N -t 1.017903 -n 13 -e 99.997749
N -t 1.017903 -n 4 -e 99.997494
N -t 1.017903 -n 17 -e 99.998258
N -t 1.017903 -n 19 -e 99.998997
N -t 1.017903 -n 1 -e 99.998512
r 1.017916630 _10_ RTR  --- 0 AODV 44 [13a a 14 800] [energy 99.997000 ei 0.000 es 0.000 et 0.001 er 0.002] ------- [20:255 4:255 30 10] [0x4 1 [20 4] 10.000000] (REPLY)
f 1.017916630 _10_ RTR  --- 0 AODV 44 [13a a 14 800] [energy 99.997000 ei 0.000 es 0.000 et 0.001 er 0.002] ------- [20:255 4:255 29 18] [0x4 2 [20 4] 10.000000] (REPLY)
s 1.018287607 _11_ RTR  --- 0 AODV 48 [0 ffffffff 12 800] [energy 99.997749 ei 0.000 es 0.000 et 0.000 er 0.002] ------- [11:255 -1:255 27 0] [0x2 4 1 [20 0] [4 4]] (REQUEST)
N -t 1.018356 -n 11 -e 99.997494
N -t 1.018356 -n 10 -e 99.996746
N -t 1.018356 -n 6 -e 99.997494
N -t 1.018356 -n 18 -e 99.997240
N -t 1.018357 -n 23 -e 99.997494
N -t 1.018357 -n 21 -e 99.997494
N -t 1.018357 -n 15 -e 99.997494
N -t 1.018357 -n 20 -e 99.997010
N -t 1.018357 -n 14 -e 99.997494
N -t 1.018357 -n 7 -e 99.998003
N -t 1.018357 -n 2 -e 99.997494
N -t 1.018357 -n 24 -e 99.997494
N -t 1.018357 -n 22 -e 99.997240
N -t 1.018357 -n 13 -e 99.997494
N -t 1.018357 -n 4 -e 99.997240
N -t 1.018357 -n 12 -e 99.998003
N -t 1.018357 -n 3 -e 99.998258
N -t 1.018357 -n 17 -e 99.998003
N -t 1.018357 -n 19 -e 99.998742
N -t 1.018358 -n 8 -e 99.998258
N -t 1.018358 -n 5 -e 99.999491
N -t 1.018358 -n 16 -e 99.999746
N -t 1.018358 -n 9 -e 99.999491
N -t 1.018358 -n 1 -e 99.998258
r 1.019229124 _11_ RTR  --- 0 AODV 48 [0 ffffffff 0 800] [energy 99.997494 ei 0.000 es 0.000 et 0.000 er 0.003] ------- [0:255 -1:255 27 0] [0x2 4 1 [20 0] [4 4]] (REQUEST)
r 1.019229261 _10_ RTR  --- 0 AODV 48 [0 ffffffff 0 800] [energy 99.996746 ei 0.000 es 0.000 et 0.001 er 0.002] ------- [0:255 -1:255 27 0] [0x2 4 1 [20 0] [4 4]] (REQUEST)
r 1.019229427 _6_ RTR  --- 0 AODV 48 [0 ffffffff 0 800] [energy 99.997494 ei 0.000 es 0.000 et 0.000 er 0.003] ------- [0:255 -1:255 27 0] [0x2 4 1 [20 0] [4 4]] (REQUEST)
r 1.019229434 _18_ RTR  --- 0 AODV 48 [0 ffffffff 0 800] [energy 99.997240 ei 0.000 es 0.000 et 0.001 er 0.002] ------- [0:255 -1:255 27 0] [0x2 4 1 [20 0] [4 4]] (REQUEST)
r 1.019229562 _23_ RTR  --- 0 AODV 48 [0 ffffffff 0 800] [energy 99.997494 ei 0.000 es 0.000 et 0.000 er 0.003] ------- [0:255 -1:255 27 0] [0x2 4 1 [20 0] [4 4]] (REQUEST)
r 1.019229567 _21_ RTR  --- 0 AODV 48 [0 ffffffff 0 800] [energy 99.997494 ei 0.000 es 0.000 et 0.000 er 0.003] ------- [0:255 -1:255 27 0] [0x2 4 1 [20 0] [4 4]] (REQUEST)
r 1.019229636 _15_ RTR  --- 0 AODV 48 [0 ffffffff 0 800] [energy 99.997494 ei 0.000 es 0.000 et 0.000 er 0.003] ------- [0:255 -1:255 27 0] [0x2 4 1 [20 0] [4 4]] (REQUEST)
r 1.019229680 _20_ RTR  --- 0 AODV 48 [0 ffffffff 0 800] [energy 99.997010 ei 0.000 es 0.000 et 0.001 er 0.002] ------- [0:255 -1:255 27 0] [0x2 4 1 [20 0] [4 4]] (REQUEST)
N -t 1.019275 -n 18 -e 99.996986
N -t 1.019275 -n 2 -e 99.997240
N -t 1.019275 -n 23 -e 99.997240
N -t 1.019275 -n 0 -e 99.996986
N -t 1.019275 -n 11 -e 99.997240
N -t 1.019275 -n 21 -e 99.997240
N -t 1.019275 -n 13 -e 99.997240
N -t 1.019276 -n 22 -e 99.996986
N -t 1.019276 -n 4 -e 99.996986
N -t 1.019276 -n 10 -e 99.996491
N -t 1.019276 -n 6 -e 99.997240
N -t 1.019276 -n 5 -e 99.999237
N -t 1.019276 -n 9 -e 99.999237
N -t 1.019276 -n 20 -e 99.996755
N -t 1.019276 -n 19 -e 99.998488
N -t 1.019276 -n 17 -e 99.997749
N -t 1.019276 -n 14 -e 99.997240
N -t 1.019276 -n 24 -e 99.997240
N -t 1.019276 -n 7 -e 99.997749
r 1.020147924 _18_ RTR  --- 0 AODV 48 [0 ffffffff f 800] [energy 99.996986 ei 0.000 es 0.000 et 0.001 er 0.003] ------- [15:255 -1:255 27 0] [0x2 4 1 [20 0] [4 4]] (REQUEST)
r 1.020148035 _2_ RTR  --- 0 AODV 48 [0 ffffffff f 800] [energy 99.997240 ei 0.000 es 0.000 et 0.000 er 0.003] ------- [15:255 -1:255 27 0] [0x2 4 1 [20 0] [4 4]] (REQUEST)
r 1.020148115 _23_ RTR  --- 0 AODV 48 [0 ffffffff f 800] [energy 99.997240 ei 0.000 es 0.000 et 0.000 er 0.003] ------- [15:255 -1:255 27 0] [0x2 4 1 [20 0] [4 4]] (REQUEST)
r 1.020148326 _0_ RTR  --- 0 AODV 48 [0 ffffffff f 800] [energy 99.996986 ei 0.000 es 0.000 et 0.001 er 0.003] ------- [15:255 -1:255 27 0] [0x2 4 1 [20 0] [4 4]] (REQUEST)
r 1.020148356 _11_ RTR  --- 0 AODV 48 [0 ffffffff f 800] [energy 99.997240 ei 0.000 es 0.000 et 0.000 er 0.003] ------- [15:255 -1:255 27 0] [0x2 4 1 [20 0] [4 4]] (REQUEST)
r 1.020148468 _21_ RTR  --- 0 AODV 48 [0 ffffffff f 800] [energy 99.997240 ei 0.000 es 0.000 et 0.000 er 0.003] ------- [15:255 -1:255 27 0] [0x2 4 1 [20 0] [4 4]] (REQUEST)
N -t 1.020194 -n 0 -e 99.996731
N -t 1.020194 -n 10 -e 99.996237
N -t 1.020194 -n 18 -e 99.996731
N -t 1.020194 -n 6 -e 99.996986
N -t 1.020194 -n 15 -e 99.996731
N -t 1.020194 -n 23 -e 99.996986
N -t 1.020194 -n 20 -e 99.996501
N -t 1.020194 -n 21 -e 99.996986
N -t 1.020194 -n 14 -e 99.996986
N -t 1.020194 -n 24 -e 99.996986
N -t 1.020194 -n 22 -e 99.996731
N -t 1.020194 -n 7 -e 99.997494
N -t 1.020194 -n 2 -e 99.996986
N -t 1.020194 -n 4 -e 99.996731
N -t 1.020195 -n 12 -e 99.997749
N -t 1.020195 -n 13 -e 99.996986
N -t 1.020195 -n 3 -e 99.998003
N -t 1.020195 -n 17 -e 99.997494
N -t 1.020195 -n 8 -e 99.998003
N -t 1.020195 -n 19 -e 99.998234
s 1.020262312 _23_ RTR  --- 0 AODV 48 [0 ffffffff 12 800] [energy 99.996986 ei 0.000 es 0.000 et 0.000 er 0.003] ------- [23:255 -1:255 27 0] [0x2 4 1 [20 0] [4 4]] (REQUEST)
r 1.021066535 _0_ RTR  --- 0 AODV 48 [0 ffffffff b 800] [energy 99.996731 ei 0.000 es 0.000 et 0.001 er 0.003] ------- [11:255 -1:255 27 0] [0x2 4 1 [20 0] [4 4]] (REQUEST)
r 1.021066703 _10_ RTR  --- 0 AODV 48 [0 ffffffff b 800] [energy 99.996237 ei 0.000 es 0.000 et 0.001 er 0.002] ------- [11:255 -1:255 27 0] [0x2 4 1 [20 0] [4 4]] (REQUEST)
r 1.021066821 _18_ RTR  --- 0 AODV 48 [0 ffffffff b 800] [energy 99.996731 ei 0.000 es 0.000 et 0.001 er 0.003] ------- [11:255 -1:255 27 0] [0x2 4 1 [20 0] [4 4]] (REQUEST)
r 1.021066929 _6_ RTR  --- 0 AODV 48 [0 ffffffff b 800] [energy 99.996986 ei 0.000 es 0.000 et 0.000 er 0.003] ------- [11:255 -1:255 27 0] [0x2 4 1 [20 0] [4 4]] (REQUEST)
r 1.021067076 _15_ RTR  --- 0 AODV 48 [0 ffffffff b 800] [energy 99.996731 ei 0.000 es 0.000 et 0.001 er 0.003] ------- [11:255 -1:255 27 0] [0x2 4 1 [20 0] [4 4]] (REQUEST)
r 1.021067109 _23_ RTR  --- 0 AODV 48 [0 ffffffff b 800] [energy 99.996986 ei 0.000 es 0.000 et 0.000 er 0.003] ------- [11:255 -1:255 27 0] [0x2 4 1 [20 0] [4 4]] (REQUEST)
r 1.021067121 _20_ RTR  --- 0 AODV 48 [0 ffffffff b 800] [energy 99.996501 ei 0.000 es 0.000 et 0.001 er 0.002] ------- [11:255 -1:255 27 0] [0x2 4 1 [20 0] [4 4]] (REQUEST)
r 1.021067155 _21_ RTR  --- 0 AODV 48 [0 ffffffff b 800] [energy 99.996986 ei 0.000 es 0.000 et 0.000 er 0.003] ------- [11:255 -1:255 27 0] [0x2 4 1 [20 0] [4 4]] (REQUEST)
r 1.021067177 _14_ RTR  --- 0 AODV 48 [0 ffffffff b 800] [energy 99.996986 ei 0.000 es 0.000 et 0.000 er 0.003] ------- [11:255 -1:255 27 0] [0x2 4 1 [20 0] [4 4]] (REQUEST)
N -t 1.021232 -n 21 -e 99.996731
N -t 1.021233 -n 2 -e 99.996731
N -t 1.021233 -n 15 -e 99.996477
N -t 1.021233 -n 13 -e 99.996731
N -t 1.021233 -n 18 -e 99.996477
N -t 1.021233 -n 0 -e 99.996477
N -t 1.021233 -n 11 -e 99.996477
N -t 1.021233 -n 10 -e 99.995982
N -t 1.021233 -n 6 -e 99.996731
N -t 1.021233 -n 17 -e 99.997240
N -t 1.021233 -n 19 -e 99.997979
N -t 1.021233 -n 5 -e 99.998982
N -t 1.021233 -n 9 -e 99.998982
N -t 1.021233 -n 20 -e 99.996246
N -t 1.021233 -n 22 -e 99.996477
N -t 1.021234 -n 4 -e 99.996477
N -t 1.021234 -n 14 -e 99.996731
N -t 1.021234 -n 16 -e 99.999491
N -t 1.021234 -n 7 -e 99.997240
N -t 1.021234 -n 24 -e 99.996731
N -t 1.021234 -n 3 -e 99.997749
N -t 1.021234 -n 8 -e 99.997749
N -t 1.021234 -n 12 -e 99.997494
N -t 1.021234 -n 1 -e 99.998003
s 1.021506324 _24_ RTR  --- 0 AODV 48 [0 ffffffff a 800] [energy 99.996731 ei 0.000 es 0.000 et 0.000 er 0.003] ------- [24:255 -1:255 26 0] [0x2 5 1 [20 0] [4 4]] (REQUEST)
s 1.022032750 _6_ RTR  --- 0 AODV 48 [0 ffffffff a 800] [energy 99.996731 ei 0.000 es 0.000 et 0.000 er 0.003] ------- [6:255 -1:255 26 0] [0x2 5 1 [20 0] [4 4]] (REQUEST)
r 1.022105491 _21_ RTR  --- 0 AODV 48 [0 ffffffff 17 800] [energy 99.996731 ei 0.000 es 0.000 et 0.000 er 0.003] ------- [23:255 -1:255 27 0] [0x2 4 1 [20 0] [4 4]] (REQUEST)
r 1.022105571 _2_ RTR  --- 0 AODV 48 [0 ffffffff 17 800] [energy 99.996731 ei 0.000 es 0.000 et 0.000 er 0.003] ------- [23:255 -1:255 27 0] [0x2 4 1 [20 0] [4 4]] (REQUEST)
r 1.022105588 _15_ RTR  --- 0 AODV 48 [0 ffffffff 17 800] [energy 99.996477 ei 0.000 es 0.000 et 0.001 er 0.003] ------- [23:255 -1:255 27 0] [0x2 4 1 [20 0] [4 4]] (REQUEST)
r 1.022105632 _13_ RTR  --- 0 AODV 48 [0 ffffffff 17 800] [energy 99.996731 ei 0.000 es 0.000 et 0.000 er 0.003] ------- [23:255 -1:255 27 0] [0x2 4 1 [20 0] [4 4]] (REQUEST)
r 1.022105695 _18_ RTR  --- 0 AODV 48 [0 ffffffff 17 800] [energy 99.996477 ei 0.000 es 0.000 et 0.001 er 0.003] ------- [23:255 -1:255 27 0] [0x2 4 1 [20 0] [4 4]] (REQUEST)
r 1.022105725 _0_ RTR  --- 0 AODV 48 [0 ffffffff 17 800] [energy 99.996477 ei 0.000 es 0.000 et 0.001 er 0.003] ------- [23:255 -1:255 27 0] [0x2 4 1 [20 0] [4 4]] (REQUEST)
r 1.022105862 _11_ RTR  --- 0 AODV 48 [0 ffffffff 17 800] [energy 99.996477 ei 0.000 es 0.000 et 0.001 er 0.003] ------- [23:255 -1:255 27 0] [0x2 4 1 [20 0] [4 4]] (REQUEST)
N -t 1.022331 -n 15 -e 99.996222
N -t 1.022331 -n 23 -e 99.996222
N -t 1.022331 -n 13 -e 99.996477
N -t 1.022331 -n 18 -e 99.996222
N -t 1.022331 -n 21 -e 99.996477
N -t 1.022331 -n 5 -e 99.998728
N -t 1.022332 -n 9 -e 99.998728
N -t 1.022332 -n 0 -e 99.996222
N -t 1.022332 -n 11 -e 99.996222
N -t 1.022332 -n 19 -e 99.997725
N -t 1.022332 -n 10 -e 99.995728
N -t 1.022332 -n 22 -e 99.996222
N -t 1.022332 -n 4 -e 99.996222
N -t 1.022332 -n 17 -e 99.996986
N -t 1.022332 -n 6 -e 99.996477
N -t 1.022332 -n 20 -e 99.995992
N -t 1.022332 -n 16 -e 99.999237
N -t 1.022332 -n 14 -e 99.996477
N -t 1.022776 -n 14 -e 99.996344
N -t 1.022777 -n 12 -e 99.997240
N -t 1.022777 -n 10 -e 99.995595
N -t 1.022777 -n 20 -e 99.995859
N -t 1.022777 -n 11 -e 99.996089
N -t 1.022777 -n 7 -e 99.996986
N -t 1.022777 -n 6 -e 99.996343
N -t 1.022777 -n 0 -e 99.996089
N -t 1.022777 -n 18 -e 99.996089
N -t 1.022777 -n 22 -e 99.996089
N -t 1.022777 -n 4 -e 99.996089
N -t 1.022777 -n 3 -e 99.997494
N -t 1.022777 -n 15 -e 99.996089
N -t 1.022777 -n 21 -e 99.996343
N -t 1.022777 -n 23 -e 99.996089
r 1.023203970 _15_ RTR  --- 0 AODV 48 [0 ffffffff 2 800] [energy 99.996089 ei 0.000 es 0.000 et 0.001 er 0.003] ------- [2:255 -1:255 27 0] [0x2 4 1 [20 0] [4 4]] (REQUEST)
r 1.023204032 _23_ RTR  --- 0 AODV 48 [0 ffffffff 2 800] [energy 99.996089 ei 0.000 es 0.000 et 0.001 er 0.003] ------- [2:255 -1:255 27 0] [0x2 4 1 [20 0] [4 4]] (REQUEST)
r 1.023204089 _13_ RTR  --- 0 AODV 48 [0 ffffffff 2 800] [energy 99.996477 ei 0.000 es 0.000 et 0.000 er 0.004] ------- [2:255 -1:255 27 0] [0x2 4 1 [20 0] [4 4]] (REQUEST)
r 1.023204246 _18_ RTR  --- 0 AODV 48 [0 ffffffff 2 800] [energy 99.996089 ei 0.000 es 0.000 et 0.001 er 0.003] ------- [2:255 -1:255 27 0] [0x2 4 1 [20 0] [4 4]] (REQUEST)
r 1.023204402 _21_ RTR  --- 0 AODV 48 [0 ffffffff 2 800] [energy 99.996343 ei 0.000 es 0.000 et 0.000 er 0.004] ------- [2:255 -1:255 27 0] [0x2 4 1 [20 0] [4 4]] (REQUEST)
r 1.023649519 _12_ RTR  --- 0 AODV 48 [0 ffffffff 18 800] [energy 99.997240 ei 0.000 es 0.000 et 0.000 er 0.003] ------- [24:255 -1:255 26 0] [0x2 5 1 [20 0] [4 4]] (REQUEST)
N -t 1.024060 -n 23 -e 99.995834
N -t 1.024060 -n 0 -e 99.995834
N -t 1.024060 -n 13 -e 99.996222
N -t 1.024060 -n 6 -e 99.996089
N -t 1.024060 -n 17 -e 99.996731
N -t 1.024060 -n 10 -e 99.995340
N -t 1.024060 -n 11 -e 99.995835
N -t 1.024060 -n 2 -e 99.995968
N -t 1.024060 -n 15 -e 99.995834
N -t 1.024060 -n 18 -e 99.995834
N -t 1.024060 -n 19 -e 99.997470
N -t 1.024060 -n 20 -e 99.995604
N -t 1.024060 -n 16 -e 99.998982
N -t 1.024060 -n 7 -e 99.996731
N -t 1.024061 -n 14 -e 99.996089
N -t 1.024061 -n 5 -e 99.998474
N -t 1.024061 -n 9 -e 99.998474
N -t 1.024061 -n 3 -e 99.997240
N -t 1.024061 -n 8 -e 99.997494
N -t 1.024061 -n 1 -e 99.997749
N -t 1.024061 -n 12 -e 99.996986
N -t 1.024061 -n 24 -e 99.995968
N -t 1.024061 -n 22 -e 99.995834
N -t 1.024061 -n 4 -e 99.995834
s 1.024769832 _12_ RTR  --- 0 AODV 48 [0 ffffffff 18 800] [energy 99.996986 ei 0.000 es 0.000 et 0.000 er 0.003] ------- [12:255 -1:255 25 0] [0x2 6 1 [20 0] [4 4]] (REQUEST)
r 1.024932686 _23_ RTR  --- 0 AODV 48 [0 ffffffff 15 800] [energy 99.995834 ei 0.000 es 0.000 et 0.001 er 0.004] ------- [21:255 -1:255 26 0] [0x2 5 1 [20 0] [4 4]] (REQUEST)
r 1.024932925 _0_ RTR  --- 0 AODV 48 [0 ffffffff 15 800] [energy 99.995834 ei 0.000 es 0.000 et 0.001 er 0.004] ------- [21:255 -1:255 26 0] [0x2 5 1 [20 0] [4 4]] (REQUEST)
r 1.024932987 _13_ RTR  --- 0 AODV 48 [0 ffffffff 15 800] [energy 99.996222 ei 0.000 es 0.000 et 0.000 er 0.004] ------- [21:255 -1:255 26 0] [0x2 5 1 [20 0] [4 4]] (REQUEST)
r 1.024933001 _6_ RTR  --- 0 AODV 48 [0 ffffffff 15 800] [energy 99.996089 ei 0.000 es 0.000 et 0.000 er 0.004] ------- [21:255 -1:255 26 0] [0x2 5 1 [20 0] [4 4]] (REQUEST)
r 1.024933046 _17_ RTR  --- 0 AODV 48 [0 ffffffff 15 800] [energy 99.996731 ei 0.000 es 0.000 et 0.000 er 0.003] ------- [21:255 -1:255 26 0] [0x2 5 1 [20 0] [4 4]] (REQUEST)
r 1.024933071 _10_ RTR  --- 0 AODV 48 [0 ffffffff 15 800] [energy 99.995340 ei 0.000 es 0.000 et 0.001 er 0.003] ------- [21:255 -1:255 26 0] [0x2 5 1 [20 0] [4 4]] (REQUEST)
r 1.024933102 _11_ RTR  --- 0 AODV 48 [0 ffffffff 15 800] [energy 99.995835 ei 0.000 es 0.000 et 0.001 er 0.004] ------- [21:255 -1:255 26 0] [0x2 5 1 [20 0] [4 4]] (REQUEST)
r 1.024933134 _2_ RTR  --- 0 AODV 48 [0 ffffffff 15 800] [energy 99.995968 ei 0.000 es 0.000 et 0.001 er 0.004] ------- [21:255 -1:255 26 0] [0x2 5 1 [20 0] [4 4]] (REQUEST)
r 1.024933135 _15_ RTR  --- 0 AODV 48 [0 ffffffff 15 800] [energy 99.995834 ei 0.000 es 0.000 et 0.001 er 0.004] ------- [21:255 -1:255 26 0] [0x2 5 1 [20 0] [4 4]] (REQUEST)
N -t 1.024998 -n 6 -e 99.995883
N -t 1.024998 -n 0 -e 99.995628
N -t 1.024998 -n 11 -e 99.995628
N -t 1.024998 -n 20 -e 99.995398
N -t 1.024999 -n 14 -e 99.995883
N -t 1.024999 -n 7 -e 99.996525
N -t 1.024999 -n 21 -e 99.995628
N -t 1.024999 -n 18 -e 99.995628
N -t 1.024999 -n 24 -e 99.995762
N -t 1.024999 -n 23 -e 99.995628
N -t 1.024999 -n 12 -e 99.996779
N -t 1.024999 -n 15 -e 99.995628
N -t 1.024999 -n 3 -e 99.997034
N -t 1.024999 -n 2 -e 99.995762
N -t 1.024999 -n 22 -e 99.995628
N -t 1.024999 -n 8 -e 99.997288
N -t 1.024999 -n 13 -e 99.996016
N -t 1.024999 -n 4 -e 99.995628
N -t 1.024999 -n 17 -e 99.996525
N -t 1.025000 -n 19 -e 99.997264
N -t 1.025000 -n 1 -e 99.997542
N -t 1.025000 -n 16 -e 99.998776
N -t 1.025817 -n 20 -e 99.995144
N -t 1.025817 -n 14 -e 99.995628
N -t 1.025817 -n 12 -e 99.996525
N -t 1.025817 -n 6 -e 99.995628
N -t 1.025817 -n 3 -e 99.996779
N -t 1.025817 -n 10 -e 99.994673
N -t 1.025818 -n 24 -e 99.995507
N -t 1.025818 -n 0 -e 99.995374
N -t 1.025818 -n 11 -e 99.995374