n -t 0 -s 0 -S DLABEL -l "ETH1" -L ""
n -t 0 -s 1 -S DLABEL -l "ETH2" -L ""
n -t 0 -s 2 -S DLABEL -l "ETH3" -L ""
n -t 0 -s 3 -S DLABEL -l "ETH4" -L ""
V -t * -v 1.0a5 -a 0
A -t * -n 1 -p 0 -o 0x7fffffff -c 30 -a 1
A -t * -h 1 -m 1073741823 -s 0
c -t * -i 1 -n green
c -t * -i 2 -n red
n -t * -a 0 -s 0 -S UP -v circle -c black -i black
n -t * -a 1 -s 1 -S UP -v circle -c black -i black
n -t * -a 2 -s 2 -S UP -v circle -c black -i black
n -t * -a 3 -s 3 -S UP -v circle -c black -i black
X -t * -n 4 -r 10Mb -D 10ms -o left
L -t * -s 4 -d 0 -o up
L -t * -s 4 -d 1 -o down
L -t * -s 4 -d 2 -o up
L -t * -s 4 -d 3 -o down
h -t 0.1 -s 0 -d 4 -p tcp -e 40 -c 1 -i 0 -a 1 -x {0.0 1.0 0 ------- null}
h -t 0.1 -s 3 -d 4 -p tcp -e 40 -c 2 -i 1 -a 2 -x {3.0 2.0 0 ------- null}
+ -t 0.11 -s 0 -d 4 -p tcp -e 40 -c 1 -i 0 -a 1 -x {0.0 1.0 0 ------- null}
- -t 0.11 -s 0 -d 4 -p tcp -e 40 -c 1 -i 0 -a 1 -x {0.0 1.0 0 ------- null}
h -t 0.11 -s 0 -d 4 -p tcp -e 40 -c 1 -i 0 -a 1 -x {0.0 1.0 -1 ------- null}
+ -t 0.11 -s 3 -d 4 -p tcp -e 40 -c 2 -i 1 -a 2 -x {3.0 2.0 0 ------- null}
- -t 0.11 -s 3 -d 4 -p tcp -e 40 -c 2 -i 1 -a 2 -x {3.0 2.0 0 ------- null}
h -t 0.11 -s 3 -d 4 -p tcp -e 40 -c 2 -i 1 -a 2 -x {3.0 2.0 -1 ------- null}
r -t 0.120072 -s 4 -d 1 -p tcp -e 40 -c 1 -i 0 -a 1 -x {0.0 1.0 0 ------- null}
h -t 0.120072 -s 1 -d 4 -p ack -e 40 -c 1 -i 2 -a 1 -x {1.0 0.0 0 ------- null}
r -t 0.1201368 -s 4 -d 2 -p tcp -e 40 -c 2 -i 1 -a 2 -x {3.0 2.0 0 ------- null}
h -t 0.1201368 -s 2 -d 4 -p ack -e 40 -c 2 -i 3 -a 2 -x {2.0 3.0 0 ------- null}
+ -t 0.130072 -s 1 -d 4 -p ack -e 40 -c 1 -i 2 -a 1 -x {1.0 0.0 0 ------- null}
- -t 0.130072 -s 1 -d 4 -p ack -e 40 -c 1 -i 2 -a 1 -x {1.0 0.0 0 ------- null}
h -t 0.130072 -s 1 -d 4 -p ack -e 40 -c 1 -i 2 -a 1 -x {1.0 0.0 -1 ------- null}
+ -t 0.1301368 -s 2 -d 4 -p ack -e 40 -c 2 -i 3 -a 2 -x {2.0 3.0 0 ------- null}
- -t 0.1301368 -s 2 -d 4 -p ack -e 40 -c 2 -i 3 -a 2 -x {2.0 3.0 0 ------- null}
h -t 0.1301368 -s 2 -d 4 -p ack -e 40 -c 2 -i 3 -a 2 -x {2.0 3.0 -1 ------- null}
r -t 0.1401272 -s 4 -d 0 -p ack -e 40 -c 1 -i 2 -a 1 -x {1.0 0.0 0 ------- null}
h -t 0.1401272 -s 0 -d 4 -p tcp -e 1040 -c 1 -i 4 -a 1 -x {0.0 1.0 1 ------- null}
h -t 0.1401272 -s 0 -d 4 -p tcp -e 1040 -c 1 -i 5 -a 1 -x {0.0 1.0 2 ------- null}
r -t 0.140192 -s 4 -d 3 -p ack -e 40 -c 2 -i 3 -a 2 -x {2.0 3.0 0 ------- null}
h -t 0.140192 -s 3 -d 4 -p tcp -e 1040 -c 2 -i 6 -a 2 -x {3.0 2.0 1 ------- null}
h -t 0.140192 -s 3 -d 4 -p tcp -e 1040 -c 2 -i 7 -a 2 -x {3.0 2.0 2 ------- null}
+ -t 0.1501272 -s 0 -d 4 -p tcp -e 1040 -c 1 -i 4 -a 1 -x {0.0 1.0 1 ------- null}
- -t 0.1501272 -s 0 -d 4 -p tcp -e 1040 -c 1 -i 4 -a 1 -x {0.0 1.0 1 ------- null}
h -t 0.1501272 -s 0 -d 4 -p tcp -e 1040 -c 1 -i 4 -a 1 -x {0.0 1.0 -1 ------- null}
+ -t 0.1501272 -s 0 -d 4 -p tcp -e 1040 -c 1 -i 5 -a 1 -x {0.0 1.0 2 ------- null}
+ -t 0.150192 -s 3 -d 4 -p tcp -e 1040 -c 2 -i 6 -a 2 -x {3.0 2.0 1 ------- null}
- -t 0.150192 -s 3 -d 4 -p tcp -e 1040 -c 2 -i 6 -a 2 -x {3.0 2.0 1 ------- null}
h -t 0.150192 -s 3 -d 4 -p tcp -e 1040 -c 2 -i 6 -a 2 -x {3.0 2.0 -1 ------- null}
+ -t 0.150192 -s 3 -d 4 -p tcp -e 1040 -c 2 -i 7 -a 2 -x {3.0 2.0 2 ------- null}
- -t 0.15098 -s 0 -d 4 -p tcp -e 1040 -c 1 -i 5 -a 1 -x {0.0 1.0 2 ------- null}
h -t 0.15098 -s 0 -d 4 -p tcp -e 1040 -c 1 -i 5 -a 1 -x {0.0 1.0 -1 ------- null}
- -t 0.1519216 -s 3 -d 4 -p tcp -e 1040 -c 2 -i 7 -a 2 -x {3.0 2.0 2 ------- null}
h -t 0.1519216 -s 3 -d 4 -p tcp -e 1040 -c 2 -i 7 -a 2 -x {3.0 2.0 -1 ------- null}
r -t 0.1609744 -s 4 -d 1 -p tcp -e 1040 -c 1 -i 4 -a 1 -x {0.0 1.0 1 ------- null}
h -t 0.1609744 -s 1 -d 4 -p ack -e 40 -c 1 -i 8 -a 1 -x {1.0 0.0 1 ------- null}
r -t 0.161916 -s 4 -d 2 -p tcp -e 1040 -c 2 -i 6 -a 2 -x {3.0 2.0 1 ------- null}
h -t 0.161916 -s 2 -d 4 -p ack -e 40 -c 2 -i 9 -a 2 -x {2.0 3.0 1 ------- null}
r -t 0.1628408 -s 4 -d 2 -p tcp -e 1040 -c 2 -i 7 -a 2 -x {3.0 2.0 2 ------- null}
h -t 0.1628408 -s 2 -d 4 -p ack -e 40 -c 2 -i 10 -a 2 -x {2.0 3.0 2 ------- null}
r -t 0.1636976 -s 4 -d 1 -p tcp -e 1040 -c 1 -i 5 -a 1 -x {0.0 1.0 2 ------- null}
h -t 0.1636976 -s 1 -d 4 -p ack -e 40 -c 1 -i 11 -a 1 -x {1.0 0.0 2 ------- null}
+ -t 0.1709744 -s 1 -d 4 -p ack -e 40 -c 1 -i 8 -a 1 -x {1.0 0.0 1 ------- null}
- -t 0.1709744 -s 1 -d 4 -p ack -e 40 -c 1 -i 8 -a 1 -x {1.0 0.0 1 ------- null}
h -t 0.1709744 -s 1 -d 4 -p ack -e 40 -c 1 -i 8 -a 1 -x {1.0 0.0 -1 ------- null}
+ -t 0.171916 -s 2 -d 4 -p ack -e 40 -c 2 -i 9 -a 2 -x {2.0 3.0 1 ------- null}
- -t 0.171916 -s 2 -d 4 -p ack -e 40 -c 2 -i 9 -a 2 -x {2.0 3.0 1 ------- null}
h -t 0.171916 -s 2 -d 4 -p ack -e 40 -c 2 -i 9 -a 2 -x {2.0 3.0 -1 ------- null}
+ -t 0.1728408 -s 2 -d 4 -p ack -e 40 -c 2 -i 10 -a 2 -x {2.0 3.0 2 ------- null}
- -t 0.1728408 -s 2 -d 4 -p ack -e 40 -c 2 -i 10 -a 2 -x {2.0 3.0 2 ------- null}
h -t 0.1728408 -s 2 -d 4 -p ack -e 40 -c 2 -i 10 -a 2 -x {2.0 3.0 -1 ------- null}
+ -t 0.1736976 -s 1 -d 4 -p ack -e 40 -c 1 -i 11 -a 1 -x {1.0 0.0 2 ------- null}
- -t 0.1736976 -s 1 -d 4 -p ack -e 40 -c 1 -i 11 -a 1 -x {1.0 0.0 2 ------- null}
h -t 0.1736976 -s 1 -d 4 -p ack -e 40 -c 1 -i 11 -a 1 -x {1.0 0.0 -1 ------- null}
r -t 0.1810296 -s 4 -d 0 -p ack -e 40 -c 1 -i 8 -a 1 -x {1.0 0.0 1 ------- null}
h -t 0.1810296 -s 0 -d 4 -p tcp -e 1040 -c 1 -i 12 -a 1 -x {0.0 1.0 3 ------- null}
h -t 0.1810296 -s 0 -d 4 -p tcp -e 1040 -c 1 -i 13 -a 1 -x {0.0 1.0 4 ------- null}
r -t 0.1819712 -s 4 -d 3 -p ack -e 40 -c 2 -i 9 -a 2 -x {2.0 3.0 1 ------- null}
h -t 0.1819712 -s 3 -d 4 -p tcp -e 1040 -c 2 -i 14 -a 2 -x {3.0 2.0 3 ------- null}
h -t 0.1819712 -s 3 -d 4 -p tcp -e 1040 -c 2 -i 15 -a 2 -x {3.0 2.0 4 ------- null}
r -t 0.182896 -s 4 -d 3 -p ack -e 40 -c 2 -i 10 -a 2 -x {2.0 3.0 2 ------- null}
h -t 0.182896 -s 3 -d 4 -p tcp -e 1040 -c 2 -i 16 -a 2 -x {3.0 2.0 5 ------- null}
h -t 0.182896 -s 3 -d 4 -p tcp -e 1040 -c 2 -i 17 -a 2 -x {3.0 2.0 6 ------- null}
r -t 0.1837528 -s 4 -d 0 -p ack -e 40 -c 1 -i 11 -a 1 -x {1.0 0.0 2 ------- null}
h -t 0.1837528 -s 0 -d 4 -p tcp -e 1040 -c 1 -i 18 -a 1 -x {0.0 1.0 5 ------- null}
h -t 0.1837528 -s 0 -d 4 -p tcp -e 1040 -c 1 -i 19 -a 1 -x {0.0 1.0 6 ------- null}
+ -t 0.1910296 -s 0 -d 4 -p tcp -e 1040 -c 1 -i 12 -a 1 -x {0.0 1.0 3 ------- null}
- -t 0.1910296 -s 0 -d 4 -p tcp -e 1040 -c 1 -i 12 -a 1 -x {0.0 1.0 3 ------- null}
h -t 0.1910296 -s 0 -d 4 -p tcp -e 1040 -c 1 -i 12 -a 1 -x {0.0 1.0 -1 ------- null}
+ -t 0.1910296 -s 0 -d 4 -p tcp -e 1040 -c 1 -i 13 -a 1 -x {0.0 1.0 4 ------- null}
- -t 0.1918824 -s 0 -d 4 -p tcp -e 1040 -c 1 -i 13 -a 1 -x {0.0 1.0 4 ------- null}
h -t 0.1918824 -s 0 -d 4 -p tcp -e 1040 -c 1 -i 13 -a 1 -x {0.0 1.0 -1 ------- null}
+ -t 0.1919712 -s 3 -d 4 -p tcp -e 1040 -c 2 -i 14 -a 2 -x {3.0 2.0 3 ------- null}
- -t 0.1919712 -s 3 -d 4 -p tcp -e 1040 -c 2 -i 14 -a 2 -x {3.0 2.0 3 ------- null}
h -t 0.1919712 -s 3 -d 4 -p tcp -e 1040 -c 2 -i 14 -a 2 -x {3.0 2.0 -1 ------- null}
+ -t 0.1919712 -s 3 -d 4 -p tcp -e 1040 -c 2 -i 15 -a 2 -x {3.0 2.0 4 ------- null}
+ -t 0.192896 -s 3 -d 4 -p tcp -e 1040 -c 2 -i 16 -a 2 -x {3.0 2.0 5 ------- null}
+ -t 0.192896 -s 3 -d 4 -p tcp -e 1040 -c 2 -i 17 -a 2 -x {3.0 2.0 6 ------- null}
- -t 0.193592 -s 3 -d 4 -p tcp -e 1040 -c 2 -i 15 -a 2 -x {3.0 2.0 4 ------- null}
h -t 0.193592 -s 3 -d 4 -p tcp -e 1040 -c 2 -i 15 -a 2 -x {3.0 2.0 -1 ------- null}
+ -t 0.1937528 -s 0 -d 4 -p tcp -e 1040 -c 1 -i 18 -a 1 -x {0.0 1.0 5 ------- null}
- -t 0.1937528 -s 0 -d 4 -p tcp -e 1040 -c 1 -i 18 -a 1 -x {0.0 1.0 5 ------- null}
h -t 0.1937528 -s 0 -d 4 -p tcp -e 1040 -c 1 -i 18 -a 1 -x {0.0 1.0 -1 ------- null}
+ -t 0.1937528 -s 0 -d 4 -p tcp -e 1040 -c 1 -i 19 -a 1 -x {0.0 1.0 6 ------- null}
- -t 0.1944448 -s 3 -d 4 -p tcp -e 1040 -c 2 -i 16 -a 2 -x {3.0 2.0 5 ------- null}
h -t 0.1944448 -s 3 -d 4 -p tcp -e 1040 -c 2 -i 16 -a 2 -x {3.0 2.0 -1 ------- null}
- -t 0.1953352 -s 0 -d 4 -p tcp -e 1040 -c 1 -i 19 -a 1 -x {0.0 1.0 6 ------- null}
h -t 0.1953352 -s 0 -d 4 -p tcp -e 1040 -c 1 -i 19 -a 1 -x {0.0 1.0 -1 ------- null}
- -t 0.1971168 -s 3 -d 4 -p tcp -e 1040 -c 2 -i 17 -a 2 -x {3.0 2.0 6 ------- null}
h -t 0.1971168 -s 3 -d 4 -p tcp -e 1040 -c 2 -i 17 -a 2 -x {3.0 2.0 -1 ------- null}
r -t 0.2018768 -s 4 -d 1 -p tcp -e 1040 -c 1 -i 12 -a 1 -x {0.0 1.0 3 ------- null}
h -t 0.2018768 -s 1 -d 4 -p ack -e 40 -c 1 -i 20 -a 1 -x {1.0 0.0 3 ------- null}
r -t 0.2027296 -s 4 -d 1 -p tcp -e 1040 -c 1 -i 13 -a 1 -x {0.0 1.0 4 ------- null}
h -t 0.2027296 -s 1 -d 4 -p ack -e 40 -c 1 -i 21 -a 1 -x {1.0 0.0 4 ------- null}
r -t 0.2035864 -s 4 -d 2 -p tcp -e 1040 -c 2 -i 14 -a 2 -x {3.0 2.0 3 ------- null}
h -t 0.2035864 -s 2 -d 4 -p ack -e 40 -c 2 -i 22 -a 2 -x {2.0 3.0 3 ------- null}
r -t 0.2044392 -s 4 -d 2 -p tcp -e 1040 -c 2 -i 15 -a 2 -x {3.0 2.0 4 ------- null}
h -t 0.2044392 -s 2 -d 4 -p ack -e 40 -c 2 -i 23 -a 2 -x {2.0 3.0 4 ------- null}
r -t 0.2053296 -s 4 -d 1 -p tcp -e 1040 -c 1 -i 18 -a 1 -x {0.0 1.0 5 ------- null}
h -t 0.2053296 -s 1 -d 4 -p ack -e 40 -c 1 -i 24 -a 1 -x {1.0 0.0 5 ------- null}
r -t 0.2062544 -s 4 -d 1 -p tcp -e 1040 -c 1 -i 19 -a 1 -x {0.0 1.0 6 ------- null}
h -t 0.2062544 -s 1 -d 4 -p ack -e 40 -c 1 -i 25 -a 1 -x {1.0 0.0 6 ------- null}
r -t 0.2071112 -s 4 -d 2 -p tcp -e 1040 -c 2 -i 16 -a 2 -x {3.0 2.0 5 ------- null}
h -t 0.2071112 -s 2 -d 4 -p ack -e 40 -c 2 -i 26 -a 2 -x {2.0 3.0 5 ------- null}
r -t 0.207964 -s 4 -d 2 -p tcp -e 1040 -c 2 -i 17 -a 2 -x {3.0 2.0 6 ------- null}
h -t 0.207964 -s 2 -d 4 -p ack -e 40 -c 2 -i 27 -a 2 -x {2.0 3.0 6 ------- null}
+ -t 0.2118768 -s 1 -d 4 -p ack -e 40 -c 1 -i 20 -a 1 -x {1.0 0.0 3 ------- null}
- -t 0.2118768 -s 1 -d 4 -p ack -e 40 -c 1 -i 20 -a 1 -x {1.0 0.0 3 ------- null}
h -t 0.2118768 -s 1 -d 4 -p ack -e 40 -c 1 -i 20 -a 1 -x {1.0 0.0 -1 ------- null}
+ -t 0.2127296 -s 1 -d 4 -p ack -e 40 -c 1 -i 21 -a 1 -x {1.0 0.0 4 ------- null}
- -t 0.2127296 -s 1 -d 4 -p ack -e 40 -c 1 -i 21 -a 1 -x {1.0 0.0 4 ------- null}
h -t 0.2127296 -s 1 -d 4 -p ack -e 40 -c 1 -i 21 -a 1 -x {1.0 0.0 -1 ------- null}
+ -t 0.2135864 -s 2 -d 4 -p ack -e 40 -c 2 -i 22 -a 2 -x {2.0 3.0 3 ------- null}
- -t 0.2135864 -s 2 -d 4 -p ack -e 40 -c 2 -i 22 -a 2 -x {2.0 3.0 3 ------- null}
h -t 0.2135864 -s 2 -d 4 -p ack -e 40 -c 2 -i 22 -a 2 -x {2.0 3.0 -1 ------- null}
+ -t 0.2144392 -s 2 -d 4 -p ack -e 40 -c 2 -i 23 -a 2 -x {2.0 3.0 4 ------- null}
- -t 0.2144392 -s 2 -d 4 -p ack -e 40 -c 2 -i 23 -a 2 -x {2.0 3.0 4 ------- null}
h -t 0.2144392 -s 2 -d 4 -p ack -e 40 -c 2 -i 23 -a 2 -x {2.0 3.0 -1 ------- null}
+ -t 0.2153296 -s 1 -d 4 -p ack -e 40 -c 1 -i 24 -a 1 -x {1.0 0.0 5 ------- null}
- -t 0.2153296 -s 1 -d 4 -p ack -e 40 -c 1 -i 24 -a 1 -x {1.0 0.0 5 ------- null}
h -t 0.2153296 -s 1 -d 4 -p ack -e 40 -c 1 -i 24 -a 1 -x {1.0 0.0 -1 ------- null}
+ -t 0.2162544 -s 1 -d 4 -p ack -e 40 -c 1 -i 25 -a 1 -x {1.0 0.0 6 ------- null}
- -t 0.2162544 -s 1 -d 4 -p ack -e 40 -c 1 -i 25 -a 1 -x {1.0 0.0 6 ------- null}
h -t 0.2162544 -s 1 -d 4 -p ack -e 40 -c 1 -i 25 -a 1 -x {1.0 0.0 -1 ------- null}
+ -t 0.2171112 -s 2 -d 4 -p ack -e 40 -c 2 -i 26 -a 2 -x {2.0 3.0 5 ------- null}
- -t 0.2171112 -s 2 -d 4 -p ack -e 40 -c 2 -i 26 -a 2 -x {2.0 3.0 5 ------- null}
h -t 0.2171112 -s 2 -d 4 -p ack -e 40 -c 2 -i 26 -a 2 -x {2.0 3.0 -1 ------- null}
+ -t 0.217964 -s 2 -d 4 -p ack -e 40 -c 2 -i 27 -a 2 -x {2.0 3.0 6 ------- null}
- -t 0.217964 -s 2 -d 4 -p ack -e 40 -c 2 -i 27 -a 2 -x {2.0 3.0 6 ------- null}
h -t 0.217964 -s 2 -d 4 -p ack -e 40 -c 2 -i 27 -a 2 -x {2.0 3.0 -1 ------- null}
r -t 0.221932 -s 4 -d 0 -p ack -e 40 -c 1 -i 20 -a 1 -x {1.0 0.0 3 ------- null}
h -t 0.221932 -s 0 -d 4 -p tcp -e 1040 -c 1 -i 28 -a 1 -x {0.0 1.0 7 ------- null}
h -t 0.221932 -s 0 -d 4 -p tcp -e 1040 -c 1 -i 29 -a 1 -x {0.0 1.0 8 ------- null}
r -t 0.2227848 -s 4 -d 0 -p ack -e 40 -c 1 -i 21 -a 1 -x {1.0 0.0 4 ------- null}
h -t 0.2227848 -s 0 -d 4 -p tcp -e 1040 -c 1 -i 30 -a 1 -x {0.0 1.0 9 ------- null}
h -t 0.2227848 -s 0 -d 4 -p tcp -e 1040 -c 1 -i 31 -a 1 -x {0.0 1.0 10 ------- null}
r -t 0.2236416 -s 4 -d 3 -p ack -e 40 -c 2 -i 22 -a 2 -x {2.0 3.0 3 ------- null}
h -t 0.2236416 -s 3 -d 4 -p tcp -e 1040 -c 2 -i 32 -a 2 -x {3.0 2.0 7 ------- null}
h -t 0.2236416 -s 3 -d 4 -p tcp -e 1040 -c 2 -i 33 -a 2 -x {3.0 2.0 8 ------- null}
r -t 0.2244944 -s 4 -d 3 -p ack -e 40 -c 2 -i 23 -a 2 -x {2.0 3.0 4 ------- null}
h -t 0.2244944 -s 3 -d 4 -p tcp -e 1040 -c 2 -i 34 -a 2 -x {3.0 2.0 9 ------- null}
h -t 0.2244944 -s 3 -d 4 -p tcp -e 1040 -c 2 -i 35 -a 2 -x {3.0 2.0 10 ------- null}
r -t 0.2253848 -s 4 -d 0 -p ack -e 40 -c 1 -i 24 -a 1 -x {1.0 0.0 5 ------- null}
h -t 0.2253848 -s 0 -d 4 -p tcp -e 1040 -c 1 -i 36 -a 1 -x {0.0 1.0 11 ------- null}
h -t 0.2253848 -s 0 -d 4 -p tcp -e 1040 -c 1 -i 37 -a 1 -x {0.0 1.0 12 ------- null}
r -t 0.2263096 -s 4 -d 0 -p ack -e 40 -c 1 -i 25 -a 1 -x {1.0 0.0 6 ------- null}
h -t 0.2263096 -s 0 -d 4 -p tcp -e 1040 -c 1 -i 38 -a 1 -x {0.0 1.0 13 ------- null}
h -t 0.2263096 -s 0 -d 4 -p tcp -e 1040 -c 1 -i 39 -a 1 -x {0.0 1.0 14 ------- null}
r -t 0.2271664 -s 4 -d 3 -p ack -e 40 -c 2 -i 26 -a 2 -x {2.0 3.0 5 ------- null}
h -t 0.2271664 -s 3 -d 4 -p tcp -e 1040 -c 2 -i 40 -a 2 -x {3.0 2.0 11 ------- null}
h -t 0.2271664 -s 3 -d 4 -p tcp -e 1040 -c 2 -i 41 -a 2 -x {3.0 2.0 12 ------- null}
r -t 0.2280192 -s 4 -d 3 -p ack -e 40 -c 2 -i 27 -a 2 -x {2.0 3.0 6 ------- null}
h -t 0.2280192 -s 3 -d 4 -p tcp -e 1040 -c 2 -i 42 -a 2 -x {3.0 2.0 13 ------- null}
h -t 0.2280192 -s 3 -d 4 -p tcp -e 1040 -c 2 -i 43 -a 2 -x {3.0 2.0 14 ------- null}
+ -t 0.231932 -s 0 -d 4 -p tcp -e 1040 -c 1 -i 28 -a 1 -x {0.0 1.0 7 ------- null}
- -t 0.231932 -s 0 -d 4 -p tcp -e 1040 -c 1 -i 28 -a 1 -x {0.0 1.0 7 ------- null}
h -t 0.231932 -s 0 -d 4 -p tcp -e 1040 -c 1 -i 28 -a 1 -x {0.0 1.0 -1 ------- null}
+ -t 0.231932 -s 0 -d 4 -p tcp -e 1040 -c 1 -i 29 -a 1 -x {0.0 1.0 8 ------- null}
+ -t 0.2327848 -s 0 -d 4 -p tcp -e 1040 -c 1 -i 30 -a 1 -x {0.0 1.0 9 ------- null}
+ -t 0.2327848 -s 0 -d 4 -p tcp -e 1040 -c 1 -i 31 -a 1 -x {0.0 1.0 10 ------- null}
- -t 0.2327848 -s 0 -d 4 -p tcp -e 1040 -c 1 -i 29 -a 1 -x {0.0 1.0 8 ------- null}
h -t 0.2327848 -s 0 -d 4 -p tcp -e 1040 -c 1 -i 29 -a 1 -x {0.0 1.0 -1 ------- null}
- -t 0.2336376 -s 0 -d 4 -p tcp -e 1040 -c 1 -i 30 -a 1 -x {0.0 1.0 9 ------- null}
h -t 0.2336376 -s 0 -d 4 -p tcp -e 1040 -c 1 -i 30 -a 1 -x {0.0 1.0 -1 ------- null}
+ -t 0.2336416 -s 3 -d 4 -p tcp -e 1040 -c 2 -i 32 -a 2 -x {3.0 2.0 7 ------- null}
- -t 0.2336416 -s 3 -d 4 -p tcp -e 1040 -c 2 -i 32 -a 2 -x {3.0 2.0 7 ------- null}
h -t 0.2336416 -s 3 -d 4 -p tcp -e 1040 -c 2 -i 32 -a 2 -x {3.0 2.0 -1 ------- null}
+ -t 0.2336416 -s 3 -d 4 -p tcp -e 1040 -c 2 -i 33 -a 2 -x {3.0 2.0 8 ------- null}
+ -t 0.2344944 -s 3 -d 4 -p tcp -e 1040 -c 2 -i 34 -a 2 -x {3.0 2.0 9 ------- null}
+ -t 0.2344944 -s 3 -d 4 -p tcp -e 1040 -c 2 -i 35 -a 2 -x {3.0 2.0 10 ------- null}
- -t 0.2345792 -s 3 -d 4 -p tcp -e 1040 -c 2 -i 33 -a 2 -x {3.0 2.0 8 ------- null}
h -t 0.2345792 -s 3 -d 4 -p tcp -e 1040 -c 2 -i 33 -a 2 -x {3.0 2.0 -1 ------- null}
+ -t 0.2353848 -s 0 -d 4 -p tcp -e 1040 -c 1 -i 36 -a 1 -x {0.0 1.0 11 ------- null}
+ -t 0.2353848 -s 0 -d 4 -p tcp -e 1040 -c 1 -i 37 -a 1 -x {0.0 1.0 12 ------- null}
- -t 0.2354528 -s 3 -d 4 -p tcp -e 1040 -c 2 -i 34 -a 2 -x {3.0 2.0 9 ------- null}
h -t 0.2354528 -s 3 -d 4 -p tcp -e 1040 -c 2 -i 34 -a 2 -x {3.0 2.0 -1 ------- null}
+ -t 0.2363096 -s 0 -d 4 -p tcp -e 1040 -c 1 -i 38 -a 1 -x {0.0 1.0 13 ------- null}
+ -t 0.2363096 -s 0 -d 4 -p tcp -e 1040 -c 1 -i 39 -a 1 -x {0.0 1.0 14 ------- null}
- -t 0.2363776 -s 3 -d 4 -p tcp -e 1040 -c 2 -i 35 -a 2 -x {3.0 2.0 10 ------- null}
h -t 0.2363776 -s 3 -d 4 -p tcp -e 1040 -c 2 -i 35 -a 2 -x {3.0 2.0 -1 ------- null}
+ -t 0.2371664 -s 3 -d 4 -p tcp -e 1040 -c 2 -i 40 -a 2 -x {3.0 2.0 11 ------- null}
+ -t 0.2371664 -s 3 -d 4 -p tcp -e 1040 -c 2 -i 41 -a 2 -x {3.0 2.0 12 ------- null}
- -t 0.2374176 -s 3 -d 4 -p tcp -e 1040 -c 2 -i 40 -a 2 -x {3.0 2.0 11 ------- null}
h -t 0.2374176 -s 3 -d 4 -p tcp -e 1040 -c 2 -i 40 -a 2 -x {3.0 2.0 -1 ------- null}
+ -t 0.2380192 -s 3 -d 4 -p tcp -e 1040 -c 2 -i 42 -a 2 -x {3.0 2.0 13 ------- null}
+ -t 0.2380192 -s 3 -d 4 -p tcp -e 1040 -c 2 -i 43 -a 2 -x {3.0 2.0 14 ------- null}
- -t 0.2382704 -s 3 -d 4 -p tcp -e 1040 -c 2 -i 41 -a 2 -x {3.0 2.0 12 ------- null}
h -t 0.2382704 -s 3 -d 4 -p tcp -e 1040 -c 2 -i 41 -a 2 -x {3.0 2.0 -1 ------- null}
- -t 0.2391952 -s 3 -d 4 -p tcp -e 1040 -c 2 -i 42 -a 2 -x {3.0 2.0 13 ------- null}
h -t 0.2391952 -s 3 -d 4 -p tcp -e 1040 -c 2 -i 42 -a 2 -x {3.0 2.0 -1 ------- null}
- -t 0.240048 -s 3 -d 4 -p tcp -e 1040 -c 2 -i 43 -a 2 -x {3.0 2.0 14 ------- null}
h -t 0.240048 -s 3 -d 4 -p tcp -e 1040 -c 2 -i 43 -a 2 -x {3.0 2.0 -1 ------- null}
- -t 0.2421608 -s 0 -d 4 -p tcp -e 1040 -c 1 -i 31 -a 1 -x {0.0 1.0 10 ------- null}
h -t 0.2421608 -s 0 -d 4 -p tcp -e 1040 -c 1 -i 31 -a 1 -x {0.0 1.0 -1 ------- null}
r -t 0.2427792 -s 4 -d 1 -p tcp -e 1040 -c 1 -i 28 -a 1 -x {0.0 1.0 7 ------- null}
h -t 0.2427792 -s 1 -d 4 -p ack -e 40 -c 1 -i 44 -a 1 -x {1.0 0.0 7 ------- null}
- -t 0.2430136 -s 0 -d 4 -p tcp -e 1040 -c 1 -i 36 -a 1 -x {0.0 1.0 11 ------- null}
h -t 0.2430136 -s 0 -d 4 -p tcp -e 1040 -c 1 -i 36 -a 1 -x {0.0 1.0 -1 ------- null}
r -t 0.243632 -s 4 -d 1 -p tcp -e 1040 -c 1 -i 29 -a 1 -x {0.0 1.0 8 ------- null}
h -t 0.243632 -s 1 -d 4 -p ack -e 40 -c 1 -i 45 -a 1 -x {1.0 0.0 8 ------- null}
- -t 0.2438664 -s 0 -d 4 -p tcp -e 1040 -c 1 -i 37 -a 1 -x {0.0 1.0 12 ------- null}
h -t 0.2438664 -s 0 -d 4 -p tcp -e 1040 -c 1 -i 37 -a 1 -x {0.0 1.0 -1 ------- null}
r -t 0.2445736 -s 4 -d 2 -p tcp -e 1040 -c 2 -i 32 -a 2 -x {3.0 2.0 7 ------- null}
h -t 0.2445736 -s 2 -d 4 -p ack -e 40 -c 2 -i 46 -a 2 -x {2.0 3.0 7 ------- null}
- -t 0.2447192 -s 0 -d 4 -p tcp -e 1040 -c 1 -i 38 -a 1 -x {0.0 1.0 13 ------- null}
h -t 0.2447192 -s 0 -d 4 -p tcp -e 1040 -c 1 -i 38 -a 1 -x {0.0 1.0 -1 ------- null}
r -t 0.2454472 -s 4 -d 2 -p tcp -e 1040 -c 2 -i 33 -a 2 -x {3.0 2.0 8 ------- null}
h -t 0.2454472 -s 2 -d 4 -p ack -e 40 -c 2 -i 47 -a 2 -x {2.0 3.0 8 ------- null}
- -t 0.245572 -s 0 -d 4 -p tcp -e 1040 -c 1 -i 39 -a 1 -x {0.0 1.0 14 ------- null}
h -t 0.245572 -s 0 -d 4 -p tcp -e 1040 -c 1 -i 39 -a 1 -x {0.0 1.0 -1 ------- null}
r -t 0.246372 -s 4 -d 2 -p tcp -e 1040 -c 2 -i 34 -a 2 -x {3.0 2.0 9 ------- null}
h -t 0.246372 -s 2 -d 4 -p ack -e 40 -c 2 -i 48 -a 2 -x {2.0 3.0 9 ------- null}
r -t 0.247412 -s 4 -d 2 -p tcp -e 1040 -c 2 -i 35 -a 2 -x {3.0 2.0 10 ------- null}
h -t 0.247412 -s 2 -d 4 -p ack -e 40 -c 2 -i 49 -a 2 -x {2.0 3.0 10 ------- null}
r -t 0.2482648 -s 4 -d 2 -p tcp -e 1040 -c 2 -i 40 -a 2 -x {3.0 2.0 11 ------- null}
h -t 0.2482648 -s 2 -d 4 -p ack -e 40 -c 2 -i 50 -a 2 -x {2.0 3.0 11 ------- null}
r -t 0.2491896 -s 4 -d 2 -p tcp -e 1040 -c 2 -i 41 -a 2 -x {3.0 2.0 12 ------- null}
h -t 0.2491896 -s 2 -d 4 -p ack -e 40 -c 2 -i 51 -a 2 -x {2.0 3.0 12 ------- null}
r -t 0.2500424 -s 4 -d 2 -p tcp -e 1040 -c 2 -i 42 -a 2 -x {3.0 2.0 13 ------- null}
h -t 0.2500424 -s 2 -d 4 -p ack -e 40 -c 2 -i 52 -a 2 -x {2.0 3.0 13 ------- null}
r -t 0.2508952 -s 4 -d 2 -p tcp -e 1040 -c 2 -i 43 -a 2 -x {3.0 2.0 14 ------- null}
h -t 0.2508952 -s 2 -d 4 -p ack -e 40 -c 2 -i 53 -a 2 -x {2.0 3.0 14 ------- null}
r -t 0.2521552 -s 4 -d 1 -p tcp -e 1040 -c 1 -i 30 -a 1 -x {0.0 1.0 9 ------- null}
h -t 0.2521552 -s 1 -d 4 -p ack -e 40 -c 1 -i 54 -a 1 -x {1.0 0.0 9 ------- null}
+ -t 0.2527792 -s 1 -d 4 -p ack -e 40 -c 1 -i 44 -a 1 -x {1.0 0.0 7 ------- null}
- -t 0.2527792 -s 1 -d 4 -p ack -e 40 -c 1 -i 44 -a 1 -x {1.0 0.0 7 ------- null}
h -t 0.2527792 -s 1 -d 4 -p ack -e 40 -c 1 -i 44 -a 1 -x {1.0 0.0 -1 ------- null}
r -t 0.253008 -s 4 -d 1 -p tcp -e 1040 -c 1 -i 31 -a 1 -x {0.0 1.0 10 ------- null}
h -t 0.253008 -s 1 -d 4 -p ack -e 40 -c 1 -i 55 -a 1 -x {1.0 0.0 10 ------- null}
+ -t 0.253632 -s 1 -d 4 -p ack -e 40 -c 1 -i 45 -a 1 -x {1.0 0.0 8 ------- null}
- -t 0.253632 -s 1 -d 4 -p ack -e 40 -c 1 -i 45 -a 1 -x {1.0 0.0 8 ------- null}
h -t 0.253632 -s 1 -d 4 -p ack -e 40 -c 1 -i 45 -a 1 -x {1.0 0.0 -1 ------- null}
r -t 0.2538608 -s 4 -d 1 -p tcp -e 1040 -c 1 -i 36 -a 1 -x {0.0 1.0 11 ------- null}
h -t 0.2538608 -s 1 -d 4 -p ack -e 40 -c 1 -i 56 -a 1 -x {1.0 0.0 11 ------- null}
+ -t 0.2545736 -s 2 -d 4 -p ack -e 40 -c 2 -i 46 -a 2 -x {2.0 3.0 7 ------- null}
- -t 0.2545736 -s 2 -d 4 -p ack -e 40 -c 2 -i 46 -a 2 -x {2.0 3.0 7 ------- null}
h -t 0.2545736 -s 2 -d 4 -p ack -e 40 -c 2 -i 46 -a 2 -x {2.0 3.0 -1 ------- null}
r -t 0.2547136 -s 4 -d 1 -p tcp -e 1040 -c 1 -i 37 -a 1 -x {0.0 1.0 12 ------- null}
h -t 0.2547136 -s 1 -d 4 -p ack -e 40 -c 1 -i 57 -a 1 -x {1.0 0.0 12 ------- null}
+ -t 0.2554472 -s 2 -d 4 -p ack -e 40 -c 2 -i 47 -a 2 -x {2.0 3.0 8 ------- null}
- -t 0.2554472 -s 2 -d 4 -p ack -e 40 -c 2 -i 47 -a 2 -x {2.0 3.0 8 ------- null}
h -t 0.2554472 -s 2 -d 4 -p ack -e 40 -c 2 -i 47 -a 2 -x {2.0 3.0 -1 ------- null}
r -t 0.2555664 -s 4 -d 1 -p tcp -e 1040 -c 1 -i 38 -a 1 -x {0.0 1.0 13 ------- null}
h -t 0.2555664 -s 1 -d 4 -p ack -e 40 -c 1 -i 58 -a 1 -x {1.0 0.0 13 ------- null}
+ -t 0.256372 -s 2 -d 4 -p ack -e 40 -c 2 -i 48 -a 2 -x {2.0 3.0 9 ------- null}
- -t 0.256372 -s 2 -d 4 -p ack -e 40 -c 2 -i 48 -a 2 -x {2.0 3.0 9 ------- null}
h -t 0.256372 -s 2 -d 4 -p ack -e 40 -c 2 -i 48 -a 2 -x {2.0 3.0 -1 ------- null}
r -t 0.2564192 -s 4 -d 1 -p tcp -e 1040 -c 1 -i 39 -a 1 -x {0.0 1.0 14 ------- null}
h -t 0.2564192 -s 1 -d 4 -p ack -e 40 -c 1 -i 59 -a 1 -x {1.0 0.0 14 ------- null}
+ -t 0.257412 -s 2 -d 4 -p ack -e 40 -c 2 -i 49 -a 2 -x {2.0 3.0 10 ------- null}
- -t 0.257412 -s 2 -d 4 -p ack -e 40 -c 2 -i 49 -a 2 -x {2.0 3.0 10 ------- null}
h -t 0.257412 -s 2 -d 4 -p ack -e 40 -c 2 -i 49 -a 2 -x {2.0 3.0 -1 ------- null}
+ -t 0.2582648 -s 2 -d 4 -p ack -e 40 -c 2 -i 50 -a 2 -x {2.0 3.0 11 ------- null}
- -t 0.2582648 -s 2 -d 4 -p ack -e 40 -c 2 -i 50 -a 2 -x {2.0 3.0 11 ------- null}
h -t 0.2582648 -s 2 -d 4 -p ack -e 40 -c 2 -i 50 -a 2 -x {2.0 3.0 -1 ------- null}
+ -t 0.2591896 -s 2 -d 4 -p ack -e 40 -c 2 -i 51 -a 2 -x {2.0 3.0 12 ------- null}
- -t 0.2591896 -s 2 -d 4 -p ack -e 40 -c 2 -i 51 -a 2 -x {2.0 3.0 12 ------- null}
h -t 0.2591896 -s 2 -d 4 -p ack -e 40 -c 2 -i 51 -a 2 -x {2.0 3.0 -1 ------- null}
+ -t 0.2600424 -s 2 -d 4 -p ack -e 40 -c 2 -i 52 -a 2 -x {2.0 3.0 13 ------- null}
- -t 0.2600424 -s 2 -d 4 -p ack -e 40 -c 2 -i 52 -a 2 -x {2.0 3.0 13 ------- null}
h -t 0.2600424 -s 2 -d 4 -p ack -e 40 -c 2 -i 52 -a 2 -x {2.0 3.0 -1 ------- null}
+ -t 0.2608952 -s 2 -d 4 -p ack -e 40 -c 2 -i 53 -a 2 -x {2.0 3.0 14 ------- null}
- -t 0.2608952 -s 2 -d 4 -p ack -e 40 -c 2 -i 53 -a 2 -x {2.0 3.0 14 ------- null}
h -t 0.2608952 -s 2 -d 4 -p ack -e 40 -c 2 -i 53 -a 2 -x {2.0 3.0 -1 ------- null}
+ -t 0.2621552 -s 1 -d 4 -p ack -e 40 -c 1 -i 54 -a 1 -x {1.0 0.0 9 ------- null}
- -t 0.2621552 -s 1 -d 4 -p ack -e 40 -c 1 -i 54 -a 1 -x {1.0 0.0 9 ------- null}
h -t 0.2621552 -s 1 -d 4 -p ack -e 40 -c 1 -i 54 -a 1 -x {1.0 0.0 -1 ------- null}
r -t 0.2628344 -s 4 -d 0 -p ack -e 40 -c 1 -i 44 -a 1 -x {1.0 0.0 7 ------- null}
h -t 0.2628344 -s 0 -d 4 -p tcp -e 1040 -c 1 -i 60 -a 1 -x {0.0 1.0 15 ------- null}
h -t 0.2628344 -s 0 -d 4 -p tcp -e 1040 -c 1 -i 61 -a 1 -x {0.0 1.0 16 ------- null}
+ -t 0.263008 -s 1 -d 4 -p ack -e 40 -c 1 -i 55 -a 1 -x {1.0 0.0 10 ------- null}
- -t 0.263008 -s 1 -d 4 -p ack -e 40 -c 1 -i 55 -a 1 -x {1.0 0.0 10 ------- null}
h -t 0.263008 -s 1 -d 4 -p ack -e 40 -c 1 -i 55 -a 1 -x {1.0 0.0 -1 ------- null}
r -t 0.2636872 -s 4 -d 0 -p ack -e 40 -c 1 -i 45 -a 1 -x {1.0 0.0 8 ------- null}
h -t 0.2636872 -s 0 -d 4 -p tcp -e 1040 -c 1 -i 62 -a 1 -x {0.0 1.0 17 ------- null}
h -t 0.2636872 -s 0 -d 4 -p tcp -e 1040 -c 1 -i 63 -a 1 -x {0.0 1.0 18 ------- null}
+ -t 0.2638608 -s 1 -d 4 -p ack -e 40 -c 1 -i 56 -a 1 -x {1.0 0.0 11 ------- null}
- -t 0.2638608 -s 1 -d 4 -p ack -e 40 -c 1 -i 56 -a 1 -x {1.0 0.0 11 ------- null}
h -t 0.2638608 -s 1 -d 4 -p ack -e 40 -c 1 -i 56 -a 1 -x {1.0 0.0 -1 ------- null}
r -t 0.2646288 -s 4 -d 3 -p ack -e 40 -c 2 -i 46 -a 2 -x {2.0 3.0 7 ------- null}
h -t 0.2646288 -s 3 -d 4 -p tcp -e 1040 -c 2 -i 64 -a 2 -x {3.0 2.0 15 ------- null}
h -t 0.2646288 -s 3 -d 4 -p tcp -e 1040 -c 2 -i 65 -a 2 -x {3.0 2.0 16 ------- null}
+ -t 0.2647136 -s 1 -d 4 -p ack -e 40 -c 1 -i 57 -a 1 -x {1.0 0.0 12 ------- null}
- -t 0.2647136 -s 1 -d 4 -p ack -e 40 -c 1 -i 57 -a 1 -x {1.0 0.0 12 ------- null}
h -t 0.2647136 -s 1 -d 4 -p ack -e 40 -c 1 -i 57 -a 1 -x {1.0 0.0 -1 ------- null}
r -t 0.2655024 -s 4 -d 3 -p ack -e 40 -c 2 -i 47 -a 2 -x {2.0 3.0 8 ------- null}
h -t 0.2655024 -s 3 -d 4 -p tcp -e 1040 -c 2 -i 66 -a 2 -x {3.0 2.0 17 ------- null}
h -t 0.2655024 -s 3 -d 4 -p tcp -e 1040 -c 2 -i 67 -a 2 -x {3.0 2.0 18 ------- null}
+ -t 0.2655664 -s 1 -d 4 -p ack -e 40 -c 1 -i 58 -a 1 -x {1.0 0.0 13 ------- null}
- -t 0.2655664 -s 1 -d 4 -p ack -e 40 -c 1 -i 58 -a 1 -x {1.0 0.0 13 ------- null}
h -t 0.2655664 -s 1 -d 4 -p ack -e 40 -c 1 -i 58 -a 1 -x {1.0 0.0 -1 ------- null}
+ -t 0.2664192 -s 1 -d 4 -p ack -e 40 -c 1 -i 59 -a 1 -x {1.0 0.0 14 ------- null}
- -t 0.2664192 -s 1 -d 4 -p ack -e 40 -c 1 -i 59 -a 1 -x {1.0 0.0 14 ------- null}
h -t 0.2664192 -s 1 -d 4 -p ack -e 40 -c 1 -i 59 -a 1 -x {1.0 0.0 -1 ------- null}
r -t 0.2664272 -s 4 -d 3 -p ack -e 40 -c 2 -i 48 -a 2 -x {2.0 3.0 9 ------- null}
h -t 0.2664272 -s 3 -d 4 -p tcp -e 1040 -c 2 -i 68 -a 2 -x {3.0 2.0 19 ------- null}
h -t 0.2664272 -s 3 -d 4 -p tcp -e 1040 -c 2 -i 69 -a 2 -x {3.0 2.0 20 ------- null}
r -t 0.2674672 -s 4 -d 3 -p ack -e 40 -c 2 -i 49 -a 2 -x {2.0 3.0 10 ------- null}
h -t 0.2674672 -s 3 -d 4 -p tcp -e 1040 -c 2 -i 70 -a 2 -x {3.0 2.0 21 ------- null}
h -t 0.2674672 -s 3 -d 4 -p tcp -e 1040 -c 2 -i 71 -a 2 -x {3.0 2.0 22 ------- null}
r -t 0.26832 -s 4 -d 3 -p ack -e 40 -c 2 -i 50 -a 2 -x {2.0 3.0 11 ------- null}
h -t 0.26832 -s 3 -d 4 -p tcp -e 1040 -c 2 -i 72 -a 2 -x {3.0 2.0 23 ------- null}
h -t 0.26832 -s 3 -d 4 -p tcp -e 1040 -c 2 -i 73 -a 2 -x {3.0 2.0 24 ------- null}
r -t 0.2692448 -s 4 -d 3 -p ack -e 40 -c 2 -i 51 -a 2 -x {2.0 3.0 12 ------- null}
h -t 0.2692448 -s 3 -d 4 -p tcp -e 1040 -c 2 -i 74 -a 2 -x {3.0 2.0 25 ------- null}
h -t 0.2692448 -s 3 -d 4 -p tcp -e 1040 -c 2 -i 75 -a 2 -x {3.0 2.0 26 ------- null}
r -t 0.2700976 -s 4 -d 3 -p ack -e 40 -c 2 -i 52 -a 2 -x {2.0 3.0 13 ------- null}
h -t 0.2700976 -s 3 -d 4 -p tcp -e 1040 -c 2 -i 76 -a 2 -x {3.0 2.0 27 ------- null}
h -t 0.2700976 -s 3 -d 4 -p tcp -e 1040 -c 2 -i 77 -a 2 -x {3.0 2.0 28 ------- null}
r -t 0.2709504 -s 4 -d 3 -p ack -e 40 -c 2 -i 53 -a 2 -x {2.0 3.0 14 ------- null}
h -t 0.2709504 -s 3 -d 4 -p tcp -e 1040 -c 2 -i 78 -a 2 -x {3.0 2.0 29 ------- null}
h -t 0.2709504 -s 3 -d 4 -p tcp -e 1040 -c 2 -i 79 -a 2 -x {3.0 2.0 30 ------- null}
r -t 0.2722104 -s 4 -d 0 -p ack -e 40 -c 1 -i 54 -a 1 -x {1.0 0.0 9 ------- null}
h -t 0.2722104 -s 0 -d 4 -p tcp -e 1040 -c 1 -i 80 -a 1 -x {0.0 1.0 19 ------- null}
h -t 0.2722104 -s 0 -d 4 -p tcp -e 1040 -c 1 -i 81 -a 1 -x {0.0 1.0 20 ------- null}
+ -t 0.2728344 -s 0 -d 4 -p tcp -e 1040 -c 1 -i 60 -a 1 -x {0.0 1.0 15 ------- null}
- -t 0.2728344 -s 0 -d 4 -p tcp -e 1040 -c 1 -i 60 -a 1 -x {0.0 1.0 15 ------- null}
h -t 0.2728344 -s 0 -d 4 -p tcp -e 1040 -c 1 -i 60 -a 1 -x {0.0 1.0 -1 ------- null}
+ -t 0.2728344 -s 0 -d 4 -p tcp -e 1040 -c 1 -i 61 -a 1 -x {0.0 1.0 16 ------- null}
r -t 0.2730632 -s 4 -d 0 -p ack -e 40 -c 1 -i 55 -a 1 -x {1.0 0.0 10 ------- null}
h -t 0.2730632 -s 0 -d 4 -p tcp -e 1040 -c 1 -i 82 -a 1 -x {0.0 1.0 21 ------- null}
h -t 0.2730632 -s 0 -d 4 -p tcp -e 1040 -c 1 -i 83 -a 1 -x {0.0 1.0 22 ------- null}
+ -t 0.2736872 -s 0 -d 4 -p tcp -e 1040 -c 1 -i 62 -a 1 -x {0.0 1.0 17 ------- null}
+ -t 0.2736872 -s 0 -d 4 -p tcp -e 1040 -c 1 -i 63 -a 1 -x {0.0 1.0 18 ------- null}
- -t 0.2736872 -s 0 -d 4 -p tcp -e 1040 -c 1 -i 61 -a 1 -x {0.0 1.0 16 ------- null}
h -t 0.2736872 -s 0 -d 4 -p tcp -e 1040 -c 1 -i 61 -a 1 -x {0.0 1.0 -1 ------- null}
r -t 0.273916 -s 4 -d 0 -p ack -e 40 -c 1 -i 56 -a 1 -x {1.0 0.0 11 ------- null}
h -t 0.273916 -s 0 -d 4 -p tcp -e 1040 -c 1 -i 84 -a 1 -x {0.0 1.0 23 ------- null}
h -t 0.273916 -s 0 -d 4 -p tcp -e 1040 -c 1 -i 85 -a 1 -x {0.0 1.0 24 ------- null}
- -t 0.27454 -s 0 -d 4 -p tcp -e 1040 -c 1 -i 62 -a 1 -x {0.0 1.0 17 ------- null}
h -t 0.27454 -s 0 -d 4 -p tcp -e 1040 -c 1 -i 62 -a 1 -x {0.0 1.0 -1 ------- null}
+ -t 0.2746288 -s 3 -d 4 -p tcp -e 1040 -c 2 -i 64 -a 2 -x {3.0 2.0 15 ------- null}
- -t 0.2746288 -s 3 -d 4 -p tcp -e 1040 -c 2 -i 64 -a 2 -x {3.0 2.0 15 ------- null}
h -t 0.2746288 -s 3 -d 4 -p tcp -e 1040 -c 2 -i 64 -a 2 -x {3.0 2.0 -1 ------- null}
+ -t 0.2746288 -s 3 -d 4 -p tcp -e 1040 -c 2 -i 65 -a 2 -x {3.0 2.0 16 ------- null}
r -t 0.2747688 -s 4 -d 0 -p ack -e 40 -c 1 -i 57 -a 1 -x {1.0 0.0 12 ------- null}
h -t 0.2747688 -s 0 -d 4 -p tcp -e 1040 -c 1 -i 86 -a 1 -x {0.0 1.0 25 ------- null}
h -t 0.2747688 -s 0 -d 4 -p tcp -e 1040 -c 1 -i 87 -a 1 -x {0.0 1.0 26 ------- null}
- -t 0.2753928 -s 0 -d 4 -p tcp -e 1040 -c 1 -i 63 -a 1 -x {0.0 1.0 18 ------- null}
h -t 0.2753928 -s 0 -d 4 -p tcp -e 1040 -c 1 -i 63 -a 1 -x {0.0 1.0 -1 ------- null}
+ -t 0.2755024 -s 3 -d 4 -p tcp -e 1040 -c 2 -i 66 -a 2 -x {3.0 2.0 17 ------- null}
+ -t 0.2755024 -s 3 -d 4 -p tcp -e 1040 -c 2 -i 67 -a 2 -x {3.0 2.0 18 ------- null}
r -t 0.2756216 -s 4 -d 0 -p ack -e 40 -c 1 -i 58 -a 1 -x {1.0 0.0 13 ------- null}
h -t 0.2756216 -s 0 -d 4 -p tcp -e 1040 -c 1 -i 88 -a 1 -x {0.0 1.0 27 ------- null}
h -t 0.2756216 -s 0 -d 4 -p tcp -e 1040 -c 1 -i 89 -a 1 -x {0.0 1.0 28 ------- null}
+ -t 0.2764272 -s 3 -d 4 -p tcp -e 1040 -c 2 -i 68 -a 2 -x {3.0 2.0 19 ------- null}
+ -t 0.2764272 -s 3 -d 4 -p tcp -e 1040 -c 2 -i 69 -a 2 -x {3.0 2.0 20 ------- null}
r -t 0.2764744 -s 4 -d 0 -p ack -e 40 -c 1 -i 59 -a 1 -x {1.0 0.0 14 ------- null}
h -t 0.2764744 -s 0 -d 4 -p tcp -e 1040 -c 1 -i 90 -a 1 -x {0.0 1.0 29 ------- null}
h -t 0.2764744 -s 0 -d 4 -p tcp -e 1040 -c 1 -i 91 -a 1 -x {0.0 1.0 30 ------- null}
- -t 0.2772384 -s 3 -d 4 -p tcp -e 1040 -c 2 -i 65 -a 2 -x {3.0 2.0 16 ------- null}