h 0.1 0 4 tcp 40 ------- 1 0.0 1.0 0 0
h 0.1 3 4 tcp 40 ------- 2 3.0 2.0 0 1
+ 0.11 0 4 tcp 40 ------- 1 0.0 1.0 0 0
- 0.11 0 4 tcp 40 ------- 1 0.0 1.0 0 0
+ 0.11 3 4 tcp 40 ------- 2 3.0 2.0 0 1
- 0.11 3 4 tcp 40 ------- 2 3.0 2.0 0 1
r 0.120072 4 1 tcp 40 ------- 1 0.0 1.0 0 0
h 0.120072 1 4 ack 40 ------- 1 1.0 0.0 0 2
r 0.120137 4 2 tcp 40 ------- 2 3.0 2.0 0 1
h 0.120137 2 4 ack 40 ------- 2 2.0 3.0 0 3
+ 0.130072 1 4 ack 40 ------- 1 1.0 0.0 0 2
- 0.130072 1 4 ack 40 ------- 1 1.0 0.0 0 2
+ 0.130137 2 4 ack 40 ------- 2 2.0 3.0 0 3
- 0.130137 2 4 ack 40 ------- 2 2.0 3.0 0 3
r 0.140127 4 0 ack 40 ------- 1 1.0 0.0 0 2
h 0.140127 0 4 tcp 1040 ------- 1 0.0 1.0 1 4
h 0.140127 0 4 tcp 1040 ------- 1 0.0 1.0 2 5
r 0.140192 4 3 ack 40 ------- 2 2.0 3.0 0 3
h 0.140192 3 4 tcp 1040 ------- 2 3.0 2.0 1 6
h 0.140192 3 4 tcp 1040 ------- 2 3.0 2.0 2 7
+ 0.150127 0 4 tcp 1040 ------- 1 0.0 1.0 1 4
- 0.150127 0 4 tcp 1040 ------- 1 0.0 1.0 1 4
+ 0.150127 0 4 tcp 1040 ------- 1 0.0 1.0 2 5
+ 0.150192 3 4 tcp 1040 ------- 2 3.0 2.0 1 6
- 0.150192 3 4 tcp 1040 ------- 2 3.0 2.0 1 6
+ 0.150192 3 4 tcp 1040 ------- 2 3.0 2.0 2 7
- 0.15098 0 4 tcp 1040 ------- 1 0.0 1.0 2 5
- 0.151922 3 4 tcp 1040 ------- 2 3.0 2.0 2 7
r 0.160974 4 1 tcp 1040 ------- 1 0.0 1.0 1 4
h 0.160974 1 4 ack 40 ------- 1 1.0 0.0 1 8
r 0.161916 4 2 tcp 1040 ------- 2 3.0 2.0 1 6
h 0.161916 2 4 ack 40 ------- 2 2.0 3.0 1 9
r 0.162841 4 2 tcp 1040 ------- 2 3.0 2.0 2 7
h 0.162841 2 4 ack 40 ------- 2 2.0 3.0 2 10
r 0.163698 4 1 tcp 1040 ------- 1 0.0 1.0 2 5
h 0.163698 1 4 ack 40 ------- 1 1.0 0.0 2 11
+ 0.170974 1 4 ack 40 ------- 1 1.0 0.0 1 8
- 0.170974 1 4 ack 40 ------- 1 1.0 0.0 1 8
+ 0.171916 2 4 ack 40 ------- 2 2.0 3.0 1 9
- 0.171916 2 4 ack 40 ------- 2 2.0 3.0 1 9
+ 0.172841 2 4 ack 40 ------- 2 2.0 3.0 2 10
- 0.172841 2 4 ack 40 ------- 2 2.0 3.0 2 10
+ 0.173698 1 4 ack 40 ------- 1 1.0 0.0 2 11
- 0.173698 1 4 ack 40 ------- 1 1.0 0.0 2 11
r 0.18103 4 0 ack 40 ------- 1 1.0 0.0 1 8
h 0.18103 0 4 tcp 1040 ------- 1 0.0 1.0 3 12
h 0.18103 0 4 tcp 1040 ------- 1 0.0 1.0 4 13
r 0.181971 4 3 ack 40 ------- 2 2.0 3.0 1 9
h 0.181971 3 4 tcp 1040 ------- 2 3.0 2.0 3 14
h 0.181971 3 4 tcp 1040 ------- 2 3.0 2.0 4 15
r 0.182896 4 3 ack 40 ------- 2 2.0 3.0 2 10
h 0.182896 3 4 tcp 1040 ------- 2 3.0 2.0 5 16
h 0.182896 3 4 tcp 1040 ------- 2 3.0 2.0 6 17
r 0.183753 4 0 ack 40 ------- 1 1.0 0.0 2 11
h 0.183753 0 4 tcp 1040 ------- 1 0.0 1.0 5 18
h 0.183753 0 4 tcp 1040 ------- 1 0.0 1.0 6 19
+ 0.19103 0 4 tcp 1040 ------- 1 0.0 1.0 3 12
- 0.19103 0 4 tcp 1040 ------- 1 0.0 1.0 3 12
+ 0.19103 0 4 tcp 1040 ------- 1 0.0 1.0 4 13
- 0.191882 0 4 tcp 1040 ------- 1 0.0 1.0 4 13
+ 0.191971 3 4 tcp 1040 ------- 2 3.0 2.0 3 14
- 0.191971 3 4 tcp 1040 ------- 2 3.0 2.0 3 14
+ 0.191971 3 4 tcp 1040 ------- 2 3.0 2.0 4 15
+ 0.192896 3 4 tcp 1040 ------- 2 3.0 2.0 5 16
+ 0.192896 3 4 tcp 1040 ------- 2 3.0 2.0 6 17
- 0.193592 3 4 tcp 1040 ------- 2 3.0 2.0 4 15
+ 0.193753 0 4 tcp 1040 ------- 1 0.0 1.0 5 18
- 0.193753 0 4 tcp 1040 ------- 1 0.0 1.0 5 18
+ 0.193753 0 4 tcp 1040 ------- 1 0.0 1.0 6 19
- 0.194445 3 4 tcp 1040 ------- 2 3.0 2.0 5 16
- 0.195335 0 4 tcp 1040 ------- 1 0.0 1.0 6 19
- 0.197117 3 4 tcp 1040 ------- 2 3.0 2.0 6 17
r 0.201877 4 1 tcp 1040 ------- 1 0.0 1.0 3 12
h 0.201877 1 4 ack 40 ------- 1 1.0 0.0 3 20
r 0.20273 4 1 tcp 1040 ------- 1 0.0 1.0 4 13
h 0.20273 1 4 ack 40 ------- 1 1.0 0.0 4 21
r 0.203586 4 2 tcp 1040 ------- 2 3.0 2.0 3 14
h 0.203586 2 4 ack 40 ------- 2 2.0 3.0 3 22
r 0.204439 4 2 tcp 1040 ------- 2 3.0 2.0 4 15
h 0.204439 2 4 ack 40 ------- 2 2.0 3.0 4 23
r 0.20533 4 1 tcp 1040 ------- 1 0.0 1.0 5 18
h 0.20533 1 4 ack 40 ------- 1 1.0 0.0 5 24
r 0.206254 4 1 tcp 1040 ------- 1 0.0 1.0 6 19
h 0.206254 1 4 ack 40 ------- 1 1.0 0.0 6 25
r 0.207111 4 2 tcp 1040 ------- 2 3.0 2.0 5 16
h 0.207111 2 4 ack 40 ------- 2 2.0 3.0 5 26
r 0.207964 4 2 tcp 1040 ------- 2 3.0 2.0 6 17
h 0.207964 2 4 ack 40 ------- 2 2.0 3.0 6 27
+ 0.211877 1 4 ack 40 ------- 1 1.0 0.0 3 20
- 0.211877 1 4 ack 40 ------- 1 1.0 0.0 3 20
+ 0.21273 1 4 ack 40 ------- 1 1.0 0.0 4 21
- 0.21273 1 4 ack 40 ------- 1 1.0 0.0 4 21
+ 0.213586 2 4 ack 40 ------- 2 2.0 3.0 3 22
- 0.213586 2 4 ack 40 ------- 2 2.0 3.0 3 22
+ 0.214439 2 4 ack 40 ------- 2 2.0 3.0 4 23
- 0.214439 2 4 ack 40 ------- 2 2.0 3.0 4 23
+ 0.21533 1 4 ack 40 ------- 1 1.0 0.0 5 24
- 0.21533 1 4 ack 40 ------- 1 1.0 0.0 5 24
+ 0.216254 1 4 ack 40 ------- 1 1.0 0.0 6 25
- 0.216254 1 4 ack 40 ------- 1 1.0 0.0 6 25
+ 0.217111 2 4 ack 40 ------- 2 2.0 3.0 5 26
- 0.217111 2 4 ack 40 ------- 2 2.0 3.0 5 26
+ 0.217964 2 4 ack 40 ------- 2 2.0 3.0 6 27
- 0.217964 2 4 ack 40 ------- 2 2.0 3.0 6 27
r 0.221932 4 0 ack 40 ------- 1 1.0 0.0 3 20
h 0.221932 0 4 tcp 1040 ------- 1 0.0 1.0 7 28
h 0.221932 0 4 tcp 1040 ------- 1 0.0 1.0 8 29
r 0.222785 4 0 ack 40 ------- 1 1.0 0.0 4 21
h 0.222785 0 4 tcp 1040 ------- 1 0.0 1.0 9 30
h 0.222785 0 4 tcp 1040 ------- 1 0.0 1.0 10 31
r 0.223642 4 3 ack 40 ------- 2 2.0 3.0 3 22
h 0.223642 3 4 tcp 1040 ------- 2 3.0 2.0 7 32
h 0.223642 3 4 tcp 1040 ------- 2 3.0 2.0 8 33
r 0.224494 4 3 ack 40 ------- 2 2.0 3.0 4 23
h 0.224494 3 4 tcp 1040 ------- 2 3.0 2.0 9 34
h 0.224494 3 4 tcp 1040 ------- 2 3.0 2.0 10 35
r 0.225385 4 0 ack 40 ------- 1 1.0 0.0 5 24
h 0.225385 0 4 tcp 1040 ------- 1 0.0 1.0 11 36
h 0.225385 0 4 tcp 1040 ------- 1 0.0 1.0 12 37
r 0.22631 4 0 ack 40 ------- 1 1.0 0.0 6 25
h 0.22631 0 4 tcp 1040 ------- 1 0.0 1.0 13 38
h 0.22631 0 4 tcp 1040 ------- 1 0.0 1.0 14 39
r 0.227166 4 3 ack 40 ------- 2 2.0 3.0 5 26
h 0.227166 3 4 tcp 1040 ------- 2 3.0 2.0 11 40
h 0.227166 3 4 tcp 1040 ------- 2 3.0 2.0 12 41
r 0.228019 4 3 ack 40 ------- 2 2.0 3.0 6 27
h 0.228019 3 4 tcp 1040 ------- 2 3.0 2.0 13 42
h 0.228019 3 4 tcp 1040 ------- 2 3.0 2.0 14 43
+ 0.231932 0 4 tcp 1040 ------- 1 0.0 1.0 7 28
- 0.231932 0 4 tcp 1040 ------- 1 0.0 1.0 7 28
+ 0.231932 0 4 tcp 1040 ------- 1 0.0 1.0 8 29
+ 0.232785 0 4 tcp 1040 ------- 1 0.0 1.0 9 30
+ 0.232785 0 4 tcp 1040 ------- 1 0.0 1.0 10 31
- 0.232785 0 4 tcp 1040 ------- 1 0.0 1.0 8 29
- 0.233638 0 4 tcp 1040 ------- 1 0.0 1.0 9 30
+ 0.233642 3 4 tcp 1040 ------- 2 3.0 2.0 7 32
- 0.233642 3 4 tcp 1040 ------- 2 3.0 2.0 7 32
+ 0.233642 3 4 tcp 1040 ------- 2 3.0 2.0 8 33
+ 0.234494 3 4 tcp 1040 ------- 2 3.0 2.0 9 34
+ 0.234494 3 4 tcp 1040 ------- 2 3.0 2.0 10 35
- 0.234579 3 4 tcp 1040 ------- 2 3.0 2.0 8 33
+ 0.235385 0 4 tcp 1040 ------- 1 0.0 1.0 11 36
+ 0.235385 0 4 tcp 1040 ------- 1 0.0 1.0 12 37
- 0.235453 3 4 tcp 1040 ------- 2 3.0 2.0 9 34
+ 0.23631 0 4 tcp 1040 ------- 1 0.0 1.0 13 38
+ 0.23631 0 4 tcp 1040 ------- 1 0.0 1.0 14 39
- 0.236378 3 4 tcp 1040 ------- 2 3.0 2.0 10 35
+ 0.237166 3 4 tcp 1040 ------- 2 3.0 2.0 11 40
+ 0.237166 3 4 tcp 1040 ------- 2 3.0 2.0 12 41
- 0.237418 3 4 tcp 1040 ------- 2 3.0 2.0 11 40
+ 0.238019 3 4 tcp 1040 ------- 2 3.0 2.0 13 42
+ 0.238019 3 4 tcp 1040 ------- 2 3.0 2.0 14 43
- 0.23827 3 4 tcp 1040 ------- 2 3.0 2.0 12 41
- 0.239195 3 4 tcp 1040 ------- 2 3.0 2.0 13 42
- 0.240048 3 4 tcp 1040 ------- 2 3.0 2.0 14 43
- 0.242161 0 4 tcp 1040 ------- 1 0.0 1.0 10 31
r 0.242779 4 1 tcp 1040 ------- 1 0.0 1.0 7 28
h 0.242779 1 4 ack 40 ------- 1 1.0 0.0 7 44
- 0.243014 0 4 tcp 1040 ------- 1 0.0 1.0 11 36
r 0.243632 4 1 tcp 1040 ------- 1 0.0 1.0 8 29
h 0.243632 1 4 ack 40 ------- 1 1.0 0.0 8 45
- 0.243866 0 4 tcp 1040 ------- 1 0.0 1.0 12 37
r 0.244574 4 2 tcp 1040 ------- 2 3.0 2.0 7 32
h 0.244574 2 4 ack 40 ------- 2 2.0 3.0 7 46
- 0.244719 0 4 tcp 1040 ------- 1 0.0 1.0 13 38
r 0.245447 4 2 tcp 1040 ------- 2 3.0 2.0 8 33
h 0.245447 2 4 ack 40 ------- 2 2.0 3.0 8 47
- 0.245572 0 4 tcp 1040 ------- 1 0.0 1.0 14 39
r 0.246372 4 2 tcp 1040 ------- 2 3.0 2.0 9 34
h 0.246372 2 4 ack 40 ------- 2 2.0 3.0 9 48
r 0.247412 4 2 tcp 1040 ------- 2 3.0 2.0 10 35
h 0.247412 2 4 ack 40 ------- 2 2.0 3.0 10 49
r 0.248265 4 2 tcp 1040 ------- 2 3.0 2.0 11 40
h 0.248265 2 4 ack 40 ------- 2 2.0 3.0 11 50
r 0.24919 4 2 tcp 1040 ------- 2 3.0 2.0 12 41
h 0.24919 2 4 ack 40 ------- 2 2.0 3.0 12 51
r 0.250042 4 2 tcp 1040 ------- 2 3.0 2.0 13 42
h 0.250042 2 4 ack 40 ------- 2 2.0 3.0 13 52
r 0.250895 4 2 tcp 1040 ------- 2 3.0 2.0 14 43
h 0.250895 2 4 ack 40 ------- 2 2.0 3.0 14 53
r 0.252155 4 1 tcp 1040 ------- 1 0.0 1.0 9 30
h 0.252155 1 4 ack 40 ------- 1 1.0 0.0 9 54
+ 0.252779 1 4 ack 40 ------- 1 1.0 0.0 7 44
- 0.252779 1 4 ack 40 ------- 1 1.0 0.0 7 44
r 0.253008 4 1 tcp 1040 ------- 1 0.0 1.0 10 31
h 0.253008 1 4 ack 40 ------- 1 1.0 0.0 10 55
+ 0.253632 1 4 ack 40 ------- 1 1.0 0.0 8 45
- 0.253632 1 4 ack 40 ------- 1 1.0 0.0 8 45
r 0.253861 4 1 tcp 1040 ------- 1 0.0 1.0 11 36
h 0.253861 1 4 ack 40 ------- 1 1.0 0.0 11 56
+ 0.254574 2 4 ack 40 ------- 2 2.0 3.0 7 46
- 0.254574 2 4 ack 40 ------- 2 2.0 3.0 7 46
r 0.254714 4 1 tcp 1040 ------- 1 0.0 1.0 12 37
h 0.254714 1 4 ack 40 ------- 1 1.0 0.0 12 57
+ 0.255447 2 4 ack 40 ------- 2 2.0 3.0 8 47
- 0.255447 2 4 ack 40 ------- 2 2.0 3.0 8 47
r 0.255566 4 1 tcp 1040 ------- 1 0.0 1.0 13 38
h 0.255566 1 4 ack 40 ------- 1 1.0 0.0 13 58
+ 0.256372 2 4 ack 40 ------- 2 2.0 3.0 9 48
- 0.256372 2 4 ack 40 ------- 2 2.0 3.0 9 48
r 0.256419 4 1 tcp 1040 ------- 1 0.0 1.0 14 39
h 0.256419 1 4 ack 40 ------- 1 1.0 0.0 14 59
+ 0.257412 2 4 ack 40 ------- 2 2.0 3.0 10 49
- 0.257412 2 4 ack 40 ------- 2 2.0 3.0 10 49
+ 0.258265 2 4 ack 40 ------- 2 2.0 3.0 11 50
- 0.258265 2 4 ack 40 ------- 2 2.0 3.0 11 50
+ 0.25919 2 4 ack 40 ------- 2 2.0 3.0 12 51
- 0.25919 2 4 ack 40 ------- 2 2.0 3.0 12 51
+ 0.260042 2 4 ack 40 ------- 2 2.0 3.0 13 52
- 0.260042 2 4 ack 40 ------- 2 2.0 3.0 13 52
+ 0.260895 2 4 ack 40 ------- 2 2.0 3.0 14 53
- 0.260895 2 4 ack 40 ------- 2 2.0 3.0 14 53
+ 0.262155 1 4 ack 40 ------- 1 1.0 0.0 9 54
- 0.262155 1 4 ack 40 ------- 1 1.0 0.0 9 54
r 0.262834 4 0 ack 40 ------- 1 1.0 0.0 7 44
h 0.262834 0 4 tcp 1040 ------- 1 0.0 1.0 15 60
h 0.262834 0 4 tcp 1040 ------- 1 0.0 1.0 16 61
+ 0.263008 1 4 ack 40 ------- 1 1.0 0.0 10 55
- 0.263008 1 4 ack 40 ------- 1 1.0 0.0 10 55
r 0.263687 4 0 ack 40 ------- 1 1.0 0.0 8 45
h 0.263687 0 4 tcp 1040 ------- 1 0.0 1.0 17 62
h 0.263687 0 4 tcp 1040 ------- 1 0.0 1.0 18 63
+ 0.263861 1 4 ack 40 ------- 1 1.0 0.0 11 56
- 0.263861 1 4 ack 40 ------- 1 1.0 0.0 11 56
r 0.264629 4 3 ack 40 ------- 2 2.0 3.0 7 46
h 0.264629 3 4 tcp 1040 ------- 2 3.0 2.0 15 64
h 0.264629 3 4 tcp 1040 ------- 2 3.0 2.0 16 65
+ 0.264714 1 4 ack 40 ------- 1 1.0 0.0 12 57
- 0.264714 1 4 ack 40 ------- 1 1.0 0.0 12 57
r 0.265502 4 3 ack 40 ------- 2 2.0 3.0 8 47
h 0.265502 3 4 tcp 1040 ------- 2 3.0 2.0 17 66
h 0.265502 3 4 tcp 1040 ------- 2 3.0 2.0 18 67
+ 0.265566 1 4 ack 40 ------- 1 1.0 0.0 13 58
- 0.265566 1 4 ack 40 ------- 1 1.0 0.0 13 58
+ 0.266419 1 4 ack 40 ------- 1 1.0 0.0 14 59
- 0.266419 1 4 ack 40 ------- 1 1.0 0.0 14 59
r 0.266427 4 3 ack 40 ------- 2 2.0 3.0 9 48
h 0.266427 3 4 tcp 1040 ------- 2 3.0 2.0 19 68
h 0.266427 3 4 tcp 1040 ------- 2 3.0 2.0 20 69
r 0.267467 4 3 ack 40 ------- 2 2.0 3.0 10 49
h 0.267467 3 4 tcp 1040 ------- 2 3.0 2.0 21 70
h 0.267467 3 4 tcp 1040 ------- 2 3.0 2.0 22 71
r 0.26832 4 3 ack 40 ------- 2 2.0 3.0 11 50
h 0.26832 3 4 tcp 1040 ------- 2 3.0 2.0 23 72
h 0.26832 3 4 tcp 1040 ------- 2 3.0 2.0 24 73
r 0.269245 4 3 ack 40 ------- 2 2.0 3.0 12 51
h 0.269245 3 4 tcp 1040 ------- 2 3.0 2.0 25 74
h 0.269245 3 4 tcp 1040 ------- 2 3.0 2.0 26 75
r 0.270098 4 3 ack 40 ------- 2 2.0 3.0 13 52
h 0.270098 3 4 tcp 1040 ------- 2 3.0 2.0 27 76
h 0.270098 3 4 tcp 1040 ------- 2 3.0 2.0 28 77
r 0.27095 4 3 ack 40 ------- 2 2.0 3.0 14 53
h 0.27095 3 4 tcp 1040 ------- 2 3.0 2.0 29 78
h 0.27095 3 4 tcp 1040 ------- 2 3.0 2.0 30 79
r 0.27221 4 0 ack 40 ------- 1 1.0 0.0 9 54
h 0.27221 0 4 tcp 1040 ------- 1 0.0 1.0 19 80
h 0.27221 0 4 tcp 1040 ------- 1 0.0 1.0 20 81
+ 0.272834 0 4 tcp 1040 ------- 1 0.0 1.0 15 60
- 0.272834 0 4 tcp 1040 ------- 1 0.0 1.0 15 60
+ 0.272834 0 4 tcp 1040 ------- 1 0.0 1.0 16 61
r 0.273063 4 0 ack 40 ------- 1 1.0 0.0 10 55
h 0.273063 0 4 tcp 1040 ------- 1 0.0 1.0 21 82
h 0.273063 0 4 tcp 1040 ------- 1 0.0 1.0 22 83
+ 0.273687 0 4 tcp 1040 ------- 1 0.0 1.0 17 62
+ 0.273687 0 4 tcp 1040 ------- 1 0.0 1.0 18 63
- 0.273687 0 4 tcp 1040 ------- 1 0.0 1.0 16 61
r 0.273916 4 0 ack 40 ------- 1 1.0 0.0 11 56
h 0.273916 0 4 tcp 1040 ------- 1 0.0 1.0 23 84
h 0.273916 0 4 tcp 1040 ------- 1 0.0 1.0 24 85
- 0.27454 0 4 tcp 1040 ------- 1 0.0 1.0 17 62
+ 0.274629 3 4 tcp 1040 ------- 2 3.0 2.0 15 64
- 0.274629 3 4 tcp 1040 ------- 2 3.0 2.0 15 64
+ 0.274629 3 4 tcp 1040 ------- 2 3.0 2.0 16 65
r 0.274769 4 0 ack 40 ------- 1 1.0 0.0 12 57
h 0.274769 0 4 tcp 1040 ------- 1 0.0 1.0 25 86
h 0.274769 0 4 tcp 1040 ------- 1 0.0 1.0 26 87
- 0.275393 0 4 tcp 1040 ------- 1 0.0 1.0 18 63
+ 0.275502 3 4 tcp 1040 ------- 2 3.0 2.0 17 66
+ 0.275502 3 4 tcp 1040 ------- 2 3.0 2.0 18 67
r 0.275622 4 0 ack 40 ------- 1 1.0 0.0 13 58
h 0.275622 0 4 tcp 1040 ------- 1 0.0 1.0 27 88
h 0.275622 0 4 tcp 1040 ------- 1 0.0 1.0 28 89
+ 0.276427 3 4 tcp 1040 ------- 2 3.0 2.0 19 68
+ 0.276427 3 4 tcp 1040 ------- 2 3.0 2.0 20 69
r 0.276474 4 0 ack 40 ------- 1 1.0 0.0 14 59
h 0.276474 0 4 tcp 1040 ------- 1 0.0 1.0 29 90
h 0.276474 0 4 tcp 1040 ------- 1 0.0 1.0 30 91
- 0.277238 3 4 tcp 1040 ------- 2 3.0 2.0 16 65
+ 0.277467 3 4 tcp 1040 ------- 2 3.0 2.0 21 70
+ 0.277467 3 4 tcp 1040 ------- 2 3.0 2.0 22 71
- 0.278091 3 4 tcp 1040 ------- 2 3.0 2.0 17 66
+ 0.27832 3 4 tcp 1040 ------- 2 3.0 2.0 23 72
+ 0.27832 3 4 tcp 1040 ------- 2 3.0 2.0 24 73
- 0.278944 3 4 tcp 1040 ------- 2 3.0 2.0 18 67
+ 0.279245 3 4 tcp 1040 ------- 2 3.0 2.0 25 74
+ 0.279245 3 4 tcp 1040 ------- 2 3.0 2.0 26 75
- 0.279797 3 4 tcp 1040 ------- 2 3.0 2.0 19 68
+ 0.280098 3 4 tcp 1040 ------- 2 3.0 2.0 27 76
+ 0.280098 3 4 tcp 1040 ------- 2 3.0 2.0 28 77
- 0.28065 3 4 tcp 1040 ------- 2 3.0 2.0 20 69
+ 0.28095 3 4 tcp 1040 ------- 2 3.0 2.0 29 78
+ 0.28095 3 4 tcp 1040 ------- 2 3.0 2.0 30 79
- 0.281502 3 4 tcp 1040 ------- 2 3.0 2.0 21 70
+ 0.28221 0 4 tcp 1040 ------- 1 0.0 1.0 19 80
- 0.28221 0 4 tcp 1040 ------- 1 0.0 1.0 19 80
+ 0.28221 0 4 tcp 1040 ------- 1 0.0 1.0 20 81
- 0.282355 3 4 tcp 1040 ------- 2 3.0 2.0 22 71
+ 0.283063 0 4 tcp 1040 ------- 1 0.0 1.0 21 82
+ 0.283063 0 4 tcp 1040 ------- 1 0.0 1.0 22 83
- 0.283225 0 4 tcp 1040 ------- 1 0.0 1.0 20 81
r 0.283682 4 1 tcp 1040 ------- 1 0.0 1.0 15 60
h 0.283682 1 4 ack 40 ------- 1 1.0 0.0 15 92
+ 0.283916 0 4 tcp 1040 ------- 1 0.0 1.0 23 84
+ 0.283916 0 4 tcp 1040 ------- 1 0.0 1.0 24 85
- 0.284094 3 4 tcp 1040 ------- 2 3.0 2.0 23 72
r 0.284534 4 1 tcp 1040 ------- 1 0.0 1.0 16 61
h 0.284534 1 4 ack 40 ------- 1 1.0 0.0 16 93
+ 0.284769 0 4 tcp 1040 ------- 1 0.0 1.0 25 86
+ 0.284769 0 4 tcp 1040 ------- 1 0.0 1.0 26 87
- 0.285134 3 4 tcp 1040 ------- 2 3.0 2.0 24 73
r 0.285387 4 1 tcp 1040 ------- 1 0.0 1.0 17 62
h 0.285387 1 4 ack 40 ------- 1 1.0 0.0 17 94
+ 0.285622 0 4 tcp 1040 ------- 1 0.0 1.0 27 88
+ 0.285622 0 4 tcp 1040 ------- 1 0.0 1.0 28 89
- 0.286059 3 4 tcp 1040 ------- 2 3.0 2.0 25 74
r 0.286376 4 1 tcp 1040 ------- 1 0.0 1.0 18 63
h 0.286376 1 4 ack 40 ------- 1 1.0 0.0 18 95
+ 0.286474 0 4 tcp 1040 ------- 1 0.0 1.0 29 90
+ 0.286474 0 4 tcp 1040 ------- 1 0.0 1.0 30 91
- 0.286933 3 4 tcp 1040 ------- 2 3.0 2.0 26 75
r 0.287233 4 2 tcp 1040 ------- 2 3.0 2.0 15 64
h 0.287233 2 4 ack 40 ------- 2 2.0 3.0 15 96
- 0.287806 3 4 tcp 1040 ------- 2 3.0 2.0 27 76
r 0.288086 4 2 tcp 1040 ------- 2 3.0 2.0 16 65
h 0.288086 2 4 ack 40 ------- 2 2.0 3.0 16 97
- 0.288659 3 4 tcp 1040 ------- 2 3.0 2.0 28 77
r 0.288938 4 2 tcp 1040 ------- 2 3.0 2.0 17 66
h 0.288938 2 4 ack 40 ------- 2 2.0 3.0 17 98
- 0.289512 3 4 tcp 1040 ------- 2 3.0 2.0 29 78
r 0.289791 4 2 tcp 1040 ------- 2 3.0 2.0 18 67
h 0.289791 2 4 ack 40 ------- 2 2.0 3.0 18 99
- 0.290365 3 4 tcp 1040 ------- 2 3.0 2.0 30 79
r 0.290644 4 2 tcp 1040 ------- 2 3.0 2.0 19 68
h 0.290644 2 4 ack 40 ------- 2 2.0 3.0 19 100
r 0.291497 4 2 tcp 1040 ------- 2 3.0 2.0 20 69
h 0.291497 2 4 ack 40 ------- 2 2.0 3.0 20 101
r 0.29235 4 2 tcp 1040 ------- 2 3.0 2.0 21 70
h 0.29235 2 4 ack 40 ------- 2 2.0 3.0 21 102
r 0.293219 4 1 tcp 1040 ------- 1 0.0 1.0 19 80
h 0.293219 1 4 ack 40 ------- 1 1.0 0.0 19 103
+ 0.293682 1 4 ack 40 ------- 1 1.0 0.0 15 92
- 0.293682 1 4 ack 40 ------- 1 1.0 0.0 15 92
r 0.294089 4 2 tcp 1040 ------- 2 3.0 2.0 22 71
h 0.294089 2 4 ack 40 ------- 2 2.0 3.0 22 104
+ 0.294534 1 4 ack 40 ------- 1 1.0 0.0 16 93
- 0.294534 1 4 ack 40 ------- 1 1.0 0.0 16 93
r 0.295129 4 2 tcp 1040 ------- 2 3.0 2.0 23 72
h 0.295129 2 4 ack 40 ------- 2 2.0 3.0 23 105
- 0.295382 0 4 tcp 1040 ------- 1 0.0 1.0 21 82
+ 0.295387 1 4 ack 40 ------- 1 1.0 0.0 17 94
r 0.296054 4 2 tcp 1040 ------- 2 3.0 2.0 24 73
h 0.296054 2 4 ack 40 ------- 2 2.0 3.0 24 106
- 0.296255 0 4 tcp 1040 ------- 1 0.0 1.0 22 83
+ 0.296376 1 4 ack 40 ------- 1 1.0 0.0 18 95
r 0.296927 4 2 tcp 1040 ------- 2 3.0 2.0 25 74
h 0.296927 2 4 ack 40 ------- 2 2.0 3.0 25 107
- 0.29718 0 4 tcp 1040 ------- 1 0.0 1.0 23 84
+ 0.297233 2 4 ack 40 ------- 2 2.0 3.0 15 96
- 0.297233 2 4 ack 40 ------- 2 2.0 3.0 15 96
r 0.297801 4 2 tcp 1040 ------- 2 3.0 2.0 26 75
h 0.297801 2 4 ack 40 ------- 2 2.0 3.0 26 108
+ 0.298086 2 4 ack 40 ------- 2 2.0 3.0 16 97
- 0.298086 2 4 ack 40 ------- 2 2.0 3.0 16 97
- 0.29815 0 4 tcp 1040 ------- 1 0.0 1.0 24 85
r 0.298654 4 2 tcp 1040 ------- 2 3.0 2.0 27 76
h 0.298654 2 4 ack 40 ------- 2 2.0 3.0 27 109
+ 0.298938 2 4 ack 40 ------- 2 2.0 3.0 17 98
- 0.298938 2 4 ack 40 ------- 2 2.0 3.0 17 98
- 0.299085 0 4 tcp 1040 ------- 1 0.0 1.0 25 86
r 0.299506 4 2 tcp 1040 ------- 2 3.0 2.0 28 77
h 0.299506 2 4 ack 40 ------- 2 2.0 3.0 28 110
+ 0.299791 2 4 ack 40 ------- 2 2.0 3.0 18 99
- 0.299791 2 4 ack 40 ------- 2 2.0 3.0 18 99
- 0.300019 0 4 tcp 1040 ------- 1 0.0 1.0 26 87
r 0.300359 4 2 tcp 1040 ------- 2 3.0 2.0 29 78
h 0.300359 2 4 ack 40 ------- 2 2.0 3.0 29 111
+ 0.300644 2 4 ack 40 ------- 2 2.0 3.0 19 100
- 0.300893 0 4 tcp 1040 ------- 1 0.0 1.0 27 88
r 0.301284 4 2 tcp 1040 ------- 2 3.0 2.0 30 79
h 0.301284 2 4 ack 40 ------- 2 2.0 3.0 30 112
+ 0.301497 2 4 ack 40 ------- 2 2.0 3.0 20 101
- 0.301818 0 4 tcp 1040 ------- 1 0.0 1.0 28 89
+ 0.30235 2 4 ack 40 ------- 2 2.0 3.0 21 102
- 0.302691 0 4 tcp 1040 ------- 1 0.0 1.0 29 90
+ 0.303219 1 4 ack 40 ------- 1 1.0 0.0 19 103
- 0.303565 0 4 tcp 1040 ------- 1 0.0 1.0 30 91
r 0.303737 4 0 ack 40 ------- 1 1.0 0.0 15 92
h 0.303737 0 4 tcp 1040 ------- 1 0.0 1.0 31 113
h 0.303737 0 4 tcp 1040 ------- 1 0.0 1.0 32 114
+ 0.304089 2 4 ack 40 ------- 2 2.0 3.0 22 104
- 0.304554 2 4 ack 40 ------- 2 2.0 3.0 19 100
- 0.304615 2 4 ack 40 ------- 2 2.0 3.0 20 101
- 0.304676 2 4 ack 40 ------- 2 2.0 3.0 21 102
- 0.304737 2 4 ack 40 ------- 2 2.0 3.0 22 104
+ 0.305129 2 4 ack 40 ------- 2 2.0 3.0 23 105
- 0.305129 2 4 ack 40 ------- 2 2.0 3.0 23 105
r 0.305376 4 1 tcp 1040 ------- 1 0.0 1.0 20 81
h 0.305376 1 4 ack 40 ------- 1 1.0 0.0 20 115
+ 0.306054 2 4 ack 40 ------- 2 2.0 3.0 24 106
- 0.306054 2 4 ack 40 ------- 2 2.0 3.0 24 106
r 0.30625 4 1 tcp 1040 ------- 1 0.0 1.0 21 82
h 0.30625 1 4 ack 40 ------- 1 1.0 0.0 21 116
+ 0.306927 2 4 ack 40 ------- 2 2.0 3.0 25 107
- 0.306927 2 4 ack 40 ------- 2 2.0 3.0 25 107
r 0.307174 4 1 tcp 1040 ------- 1 0.0 1.0 22 83
h 0.307174 1 4 ack 40 ------- 1 1.0 0.0 22 117
r 0.307288 4 3 ack 40 ------- 2 2.0 3.0 15 96
h 0.307288 3 4 tcp 1040 ------- 2 3.0 2.0 31 118
h 0.307288 3 4 tcp 1040 ------- 2 3.0 2.0 32 119
+ 0.307801 2 4 ack 40 ------- 2 2.0 3.0 26 108
- 0.307801 2 4 ack 40 ------- 2 2.0 3.0 26 108
- 0.307838 1 4 ack 40 ------- 1 1.0 0.0 17 94
- 0.308086 1 4 ack 40 ------- 1 1.0 0.0 18 95
r 0.308145 4 1 tcp 1040 ------- 1 0.0 1.0 23 84
h 0.308145 1 4 ack 40 ------- 1 1.0 0.0 23 120
- 0.308146 1 4 ack 40 ------- 1 1.0 0.0 19 103
r 0.308222 4 3 ack 40 ------- 2 2.0 3.0 16 97
h 0.308222 3 4 tcp 1040 ------- 2 3.0 2.0 33 121
h 0.308222 3 4 tcp 1040 ------- 2 3.0 2.0 34 122
+ 0.308654 2 4 ack 40 ------- 2 2.0 3.0 27 109
- 0.308654 2 4 ack 40 ------- 2 2.0 3.0 27 109
r 0.309079 4 1 tcp 1040 ------- 1 0.0 1.0 24 85
h 0.309079 1 4 ack 40 ------- 1 1.0 0.0 24 123
r 0.309157 4 3 ack 40 ------- 2 2.0 3.0 17 98
h 0.309157 3 4 tcp 1040 ------- 2 3.0 2.0 35 124
h 0.309157 3 4 tcp 1040 ------- 2 3.0 2.0 36 125
+ 0.309506 2 4 ack 40 ------- 2 2.0 3.0 28 110
- 0.309506 2 4 ack 40 ------- 2 2.0 3.0 28 110
r 0.310014 4 1 tcp 1040 ------- 1 0.0 1.0 25 86
h 0.310014 1 4 ack 40 ------- 1 1.0 0.0 25 126
+ 0.310359 2 4 ack 40 ------- 2 2.0 3.0 29 111
- 0.310359 2 4 ack 40 ------- 2 2.0 3.0 29 111
r 0.310887 4 1 tcp 1040 ------- 1 0.0 1.0 26 87
h 0.310887 1 4 ack 40 ------- 1 1.0 0.0 26 127
+ 0.311284 2 4 ack 40 ------- 2 2.0 3.0 30 112
- 0.311284 2 4 ack 40 ------- 2 2.0 3.0 30 112
r 0.311812 4 1 tcp 1040 ------- 1 0.0 1.0 27 88
h 0.311812 1 4 ack 40 ------- 1 1.0 0.0 27 128
r 0.312686 4 1 tcp 1040 ------- 1 0.0 1.0 28 89
h 0.312686 1 4 ack 40 ------- 1 1.0 0.0 28 129
r 0.313559 4 1 tcp 1040 ------- 1 0.0 1.0 29 90
h 0.313559 1 4 ack 40 ------- 1 1.0 0.0 29 130
+ 0.313737 0 4 tcp 1040 ------- 1 0.0 1.0 31 113
- 0.313737 0 4 tcp 1040 ------- 1 0.0 1.0 31 113
+ 0.313737 0 4 tcp 1040 ------- 1 0.0 1.0 32 114
r 0.314484 4 1 tcp 1040 ------- 1 0.0 1.0 30 91
h 0.314484 1 4 ack 40 ------- 1 1.0 0.0 30 131
r 0.314549 4 3 ack 40 ------- 2 2.0 3.0 18 99
h 0.314549 3 4 tcp 1040 ------- 2 3.0 2.0 37 132
h 0.314549 3 4 tcp 1040 ------- 2 3.0 2.0 38 133
- 0.31459 0 4 tcp 1040 ------- 1 0.0 1.0 32 114
r 0.31461 4 3 ack 40 ------- 2 2.0 3.0 19 100
h 0.31461 3 4 tcp 1040 ------- 2 3.0 2.0 39 134
r 0.31467 4 3 ack 40 ------- 2 2.0 3.0 20 101
h 0.31467 3 4 tcp 1040 ------- 2 3.0 2.0 40 135
r 0.314731 4 3 ack 40 ------- 2 2.0 3.0 21 102
h 0.314731 3 4 tcp 1040 ------- 2 3.0 2.0 41 136
r 0.314792 4 3 ack 40 ------- 2 2.0 3.0 22 104
h 0.314792 3 4 tcp 1040 ------- 2 3.0 2.0 42 137
r 0.315184 4 3 ack 40 ------- 2 2.0 3.0 23 105
h 0.315184 3 4 tcp 1040 ------- 2 3.0 2.0 43 138
+ 0.315376 1 4 ack 40 ------- 1 1.0 0.0 20 115
- 0.315376 1 4 ack 40 ------- 1 1.0 0.0 20 115
r 0.316109 4 3 ack 40 ------- 2 2.0 3.0 24 106
h 0.316109 3 4 tcp 1040 ------- 2 3.0 2.0 44 139
+ 0.31625 1 4 ack 40 ------- 1 1.0 0.0 21 116
- 0.31625 1 4 ack 40 ------- 1 1.0 0.0 21 116
r 0.316982 4 3 ack 40 ------- 2 2.0 3.0 25 107
h 0.316982 3 4 tcp 1040 ------- 2 3.0 2.0 45 140
+ 0.317174 1 4 ack 40 ------- 1 1.0 0.0 22 117
- 0.317174 1 4 ack 40 ------- 1 1.0 0.0 22 117
+ 0.317288 3 4 tcp 1040 ------- 2 3.0 2.0 31 118
- 0.317288 3 4 tcp 1040 ------- 2 3.0 2.0 31 118
+ 0.317288 3 4 tcp 1040 ------- 2 3.0 2.0 32 119
r 0.317832 4 0 ack 40 ------- 1 1.0 0.0 16 93
h 0.317832 0 4 tcp 1040 ------- 1 0.0 1.0 33 141
h 0.317832 0 4 tcp 1040 ------- 1 0.0 1.0 34 142
r 0.317982 4 3 ack 40 ------- 2 2.0 3.0 26 108
h 0.317982 3 4 tcp 1040 ------- 2 3.0 2.0 46 143
r 0.31808 4 0 ack 40 ------- 1 1.0 0.0 17 94
h 0.31808 0 4 tcp 1040 ------- 1 0.0 1.0 35 144
h 0.31808 0 4 tcp 1040 ------- 1 0.0 1.0 36 145
r 0.318141 4 0 ack 40 ------- 1 1.0 0.0 18 95
h 0.318141 0 4 tcp 1040 ------- 1 0.0 1.0 37 146
h 0.318141 0 4 tcp 1040 ------- 1 0.0 1.0 38 147
- 0.318141 3 4 tcp 1040 ------- 2 3.0 2.0 32 119
+ 0.318145 1 4 ack 40 ------- 1 1.0 0.0 23 120
- 0.318145 1 4 ack 40 ------- 1 1.0 0.0 23 120
r 0.318202 4 0 ack 40 ------- 1 1.0 0.0 19 103
h 0.318202 0 4 tcp 1040 ------- 1 0.0 1.0 39 148
+ 0.318222 3 4 tcp 1040 ------- 2 3.0 2.0 33 121
+ 0.318222 3 4 tcp 1040 ------- 2 3.0 2.0 34 122
r 0.318709 4 3 ack 40 ------- 2 2.0 3.0 27 109
h 0.318709 3 4 tcp 1040 ------- 2 3.0 2.0 47 149
- 0.319075 3 4 tcp 1040 ------- 2 3.0 2.0 33 121
+ 0.319079 1 4 ack 40 ------- 1 1.0 0.0 24 123
- 0.319079 1 4 ack 40 ------- 1 1.0 0.0 24 123
+ 0.319157 3 4 tcp 1040 ------- 2 3.0 2.0 35 124
+ 0.319157 3 4 tcp 1040 ------- 2 3.0 2.0 36 125
r 0.319562 4 3 ack 40 ------- 2 2.0 3.0 28 110
h 0.319562 3 4 tcp 1040 ------- 2 3.0 2.0 48 150
- 0.319949 3 4 tcp 1040 ------- 2 3.0 2.0 34 122
+ 0.320014 1 4 ack 40 ------- 1 1.0 0.0 25 126
r 0.320414 4 3 ack 40 ------- 2 2.0 3.0 29 111
h 0.320414 3 4 tcp 1040 ------- 2 3.0 2.0 49 151
+ 0.320887 1 4 ack 40 ------- 1 1.0 0.0 26 127
r 0.321339 4 3 ack 40 ------- 2 2.0 3.0 30 112
h 0.321339 3 4 tcp 1040 ------- 2 3.0 2.0 50 152
- 0.321368 3 4 tcp 1040 ------- 2 3.0 2.0 35 124
+ 0.321812 1 4 ack 40 ------- 1 1.0 0.0 27 128
- 0.322293 3 4 tcp 1040 ------- 2 3.0 2.0 36 125
+ 0.322686 1 4 ack 40 ------- 1 1.0 0.0 28 129
+ 0.323559 1 4 ack 40 ------- 1 1.0 0.0 29 130
- 0.323702 1 4 ack 40 ------- 1 1.0 0.0 25 126
- 0.323762 1 4 ack 40 ------- 1 1.0 0.0 26 127
- 0.323823 1 4 ack 40 ------- 1 1.0 0.0 27 128
- 0.323884 1 4 ack 40 ------- 1 1.0 0.0 28 129
- 0.323945 1 4 ack 40 ------- 1 1.0 0.0 29 130
+ 0.324484 1 4 ack 40 ------- 1 1.0 0.0 30 131
- 0.324484 1 4 ack 40 ------- 1 1.0 0.0 30 131
+ 0.324549 3 4 tcp 1040 ------- 2 3.0 2.0 37 132
- 0.324549 3 4 tcp 1040 ------- 2 3.0 2.0 37 132
+ 0.324549 3 4 tcp 1040 ------- 2 3.0 2.0 38 133
r 0.324584 4 1 tcp 1040 ------- 1 0.0 1.0 31 113
h 0.324584 1 4 ack 40 ------- 1 1.0 0.0 31 153
+ 0.32461 3 4 tcp 1040 ------- 2 3.0 2.0 39 134
+ 0.32467 3 4 tcp 1040 ------- 2 3.0 2.0 40 135
+ 0.324731 3 4 tcp 1040 ------- 2 3.0 2.0 41 136
+ 0.324792 3 4 tcp 1040 ------- 2 3.0 2.0 42 137
+ 0.325184 3 4 tcp 1040 ------- 2 3.0 2.0 43 138
- 0.325402 3 4 tcp 1040 ------- 2 3.0 2.0 38 133
r 0.325437 4 1 tcp 1040 ------- 1 0.0 1.0 32 114
h 0.325437 1 4 ack 40 ------- 1 1.0 0.0 32 154
r 0.325502 4 0 ack 40 ------- 1 1.0 0.0 20 115
h 0.325502 0 4 tcp 1040 ------- 1 0.0 1.0 40 155
+ 0.326109 3 4 tcp 1040 ------- 2 3.0 2.0 44 139
- 0.326254 3 4 tcp 1040 ------- 2 3.0 2.0 39 134
r 0.326305 4 0 ack 40 ------- 1 1.0 0.0 21 116
h 0.326305 0 4 tcp 1040 ------- 1 0.0 1.0 41 156
+ 0.326982 3 4 tcp 1040 ------- 2 3.0 2.0 45 140
- 0.327107 3 4 tcp 1040 ------- 2 3.0 2.0 40 135
r 0.32723 4 0 ack 40 ------- 1 1.0 0.0 22 117
h 0.32723 0 4 tcp 1040 ------- 1 0.0 1.0 42 157
+ 0.327832 0 4 tcp 1040 ------- 1 0.0 1.0 33 141
- 0.327832 0 4 tcp 1040 ------- 1 0.0 1.0 33 141
+ 0.327832 0 4 tcp 1040 ------- 1 0.0 1.0 34 142
- 0.32796 3 4 tcp 1040 ------- 2 3.0 2.0 41 136
+ 0.327982 3 4 tcp 1040 ------- 2 3.0 2.0 46 143
+ 0.32808 0 4 tcp 1040 ------- 1 0.0 1.0 35 144
+ 0.32808 0 4 tcp 1040 ------- 1 0.0 1.0 36 145
r 0.328135 4 2 tcp 1040 ------- 2 3.0 2.0 31 118
h 0.328135 2 4 ack 40 ------- 2 2.0 3.0 31 158
+ 0.328141 0 4 tcp 1040 ------- 1 0.0 1.0 37 146
+ 0.328141 0 4 tcp 1040 ------- 1 0.0 1.0 38 147
+ 0.328202 0 4 tcp 1040 ------- 1 0.0 1.0 39 148
r 0.328213 4 0 ack 40 ------- 1 1.0 0.0 23 120
h 0.328213 0 4 tcp 1040 ------- 1 0.0 1.0 43 159
+ 0.328709 3 4 tcp 1040 ------- 2 3.0 2.0 47 149
- 0.328834 3 4 tcp 1040 ------- 2 3.0 2.0 42 137
r 0.32907 4 2 tcp 1040 ------- 2 3.0 2.0 32 119
h 0.32907 2 4 ack 40 ------- 2 2.0 3.0 32 160
+ 0.329562 3 4 tcp 1040 ------- 2 3.0 2.0 48 150
- 0.329707 3 4 tcp 1040 ------- 2 3.0 2.0 43 138
r 0.329943 4 2 tcp 1040 ------- 2 3.0 2.0 33 121
h 0.329943 2 4 ack 40 ------- 2 2.0 3.0 33 161
+ 0.330414 3 4 tcp 1040 ------- 2 3.0 2.0 49 151
- 0.330581 3 4 tcp 1040 ------- 2 3.0 2.0 44 139
+ 0.331339 3 4 tcp 1040 ------- 2 3.0 2.0 50 152
r 0.331362 4 2 tcp 1040 ------- 2 3.0 2.0 34 122
h 0.331362 2 4 ack 40 ------- 2 2.0 3.0 34 162
- 0.331506 3 4 tcp 1040 ------- 2 3.0 2.0 45 140
r 0.332287 4 2 tcp 1040 ------- 2 3.0 2.0 35 124
h 0.332287 2 4 ack 40 ------- 2 2.0 3.0 35 163
- 0.33243 3 4 tcp 1040 ------- 2 3.0 2.0 46 143
r 0.333212 4 2 tcp 1040 ------- 2 3.0 2.0 36 125
h 0.333212 2 4 ack 40 ------- 2 2.0 3.0 36 164
- 0.333355 3 4 tcp 1040 ------- 2 3.0 2.0 47 149
r 0.333696 4 0 ack 40 ------- 1 1.0 0.0 24 123
h 0.333696 0 4 tcp 1040 ------- 1 0.0 1.0 44 165
r 0.333757 4 0 ack 40 ------- 1 1.0 0.0 25 126
h 0.333757 0 4 tcp 1040 ------- 1 0.0 1.0 45 166
r 0.333818 4 0 ack 40 ------- 1 1.0 0.0 26 127
h 0.333818 0 4 tcp 1040 ------- 1 0.0 1.0 46 167
r 0.333878 4 0 ack 40 ------- 1 1.0 0.0 27 128
h 0.333878 0 4 tcp 1040 ------- 1 0.0 1.0 47 168
r 0.333939 4 0 ack 40 ------- 1 1.0 0.0 28 129
h 0.333939 0 4 tcp 1040 ------- 1 0.0 1.0 48 169
r 0.334 4 0 ack 40 ------- 1 1.0 0.0 29 130
h 0.334 0 4 tcp 1040 ------- 1 0.0 1.0 49 170
- 0.334208 3 4 tcp 1040 ------- 2 3.0 2.0 48 150
r 0.334539 4 0 ack 40 ------- 1 1.0 0.0 30 131
h 0.334539 0 4 tcp 1040 ------- 1 0.0 1.0 50 171
+ 0.334584 1 4 ack 40 ------- 1 1.0 0.0 31 153
- 0.334584 1 4 ack 40 ------- 1 1.0 0.0 31 153
- 0.335133 3 4 tcp 1040 ------- 2 3.0 2.0 49 151
r 0.335396 4 2 tcp 1040 ------- 2 3.0 2.0 37 132
h 0.335396 2 4 ack 40 ------- 2 2.0 3.0 37 172
+ 0.335437 1 4 ack 40 ------- 1 1.0 0.0 32 154
- 0.335437 1 4 ack 40 ------- 1 1.0 0.0 32 154
+ 0.335502 0 4 tcp 1040 ------- 1 0.0 1.0 40 155
- 0.336173 3 4 tcp 1040 ------- 2 3.0 2.0 50 152
r 0.336249 4 2 tcp 1040 ------- 2 3.0 2.0 38 133
h 0.336249 2 4 ack 40 ------- 2 2.0 3.0 38 173
+ 0.336305 0 4 tcp 1040 ------- 1 0.0 1.0 41 156
r 0.337102 4 2 tcp 1040 ------- 2 3.0 2.0 39 134
h 0.337102 2 4 ack 40 ------- 2 2.0 3.0 39 174
+ 0.33723 0 4 tcp 1040 ------- 1 0.0 1.0 42 157
r 0.337954 4 2 tcp 1040 ------- 2 3.0 2.0 40 135
h 0.337954 2 4 ack 40 ------- 2 2.0 3.0 40 175
+ 0.338135 2 4 ack 40 ------- 2 2.0 3.0 31 158
- 0.338135 2 4 ack 40 ------- 2 2.0 3.0 31 158
+ 0.338213 0 4 tcp 1040 ------- 1 0.0 1.0 43 159
r 0.338828 4 2 tcp 1040 ------- 2 3.0 2.0 41 136
h 0.338828 2 4 ack 40 ------- 2 2.0 3.0 41 176
+ 0.33907 2 4 ack 40 ------- 2 2.0 3.0 32 160
- 0.33907 2 4 ack 40 ------- 2 2.0 3.0 32 160
r 0.339702 4 2 tcp 1040 ------- 2 3.0 2.0 42 137
h 0.339702 2 4 ack 40 ------- 2 2.0 3.0 42 177
+ 0.339943 2 4 ack 40 ------- 2 2.0 3.0 33 161
- 0.339943 2 4 ack 40 ------- 2 2.0 3.0 33 161
r 0.340575 4 2 tcp 1040 ------- 2 3.0 2.0 43 138
h 0.340575 2 4 ack 40 ------- 2 2.0 3.0 43 178
+ 0.341362 2 4 ack 40 ------- 2 2.0 3.0 34 162
- 0.341362 2 4 ack 40 ------- 2 2.0 3.0 34 162
r 0.3415 4 2 tcp 1040 ------- 2 3.0 2.0 44 139
h 0.3415 2 4 ack 40 ------- 2 2.0 3.0 44 179
- 0.34158 0 4 tcp 1040 ------- 1 0.0 1.0 34 142
+ 0.342287 2 4 ack 40 ------- 2 2.0 3.0 35 163